# vtk DataFile Version 2.0
track0
ASCII
DATASET POLYDATA
POINTS 10941 double
-0.0205 0.001 1e-05
-0.0202034 0.000995436 1e-05
-0.0199071 0.000981948 1e-05
-0.0196114 0.000959661 1e-05
-0.0193164 0.000928341 1e-05
-0.0190172 0.00088977 1e-05
-0.0187132 0.00085095 1e-05
-0.0184092 0.000813011 1e-05
-0.0181051 0.000775936 1e-05
-0.0178006 0.000741564 1e-05
-0.0174976 0.000710073 1e-05
-0.0173928 0.000700172 1e-05
-0.0172881 0.000690633 1e-05
-0.0171833 0.000681394 1e-05
-0.0170784 0.000672419 1e-05
-0.0169359 0.000660566 1e-05
-0.0167565 0.000646233 1e-05
-0.016577 0.000632668 1e-05
-0.0163974 0.000619839 1e-05
-0.0162178 0.000607714 1e-05
-0.0160387 0.000596226 1e-05
-0.0157586 0.00057874 1e-05
-0.0154784 0.000562764 1e-05
-0.0151981 0.000548033 1e-05
-0.0149177 0.000534421 1e-05
-0.0146381 0.000521492 1e-05
-0.0143692 0.000509508 1e-05
-0.0141002 0.000498559 1e-05
-0.0138312 0.000488573 1e-05
-0.0135621 0.000479202 1e-05
-0.0132934 0.000470141 1e-05
-0.0130353 0.000461722 1e-05
-0.0127771 0.00045406 1e-05
-0.0125188 0.000447097 1e-05
-0.0122606 0.000440459 1e-05
-0.0120025 0.000434018 1e-05
-0.0117547 0.000427998 1e-05
-0.0115068 0.000422533 1e-05
-0.0112589 0.000417462 1e-05
-0.011011 0.000412617 1e-05
-0.0107632 0.000407942 1e-05
-0.0105252 0.000403542 1e-05
-0.0102873 0.000399556 1e-05
-0.0100493 0.000395785 1e-05
-0.0098113 0.000392171 1e-05
-0.00957337 0.000388703 1e-05
-0.00934491 0.000385412 1e-05
-0.00911645 0.000382434 1e-05
-0.00888798 0.000379567 1e-05
-0.00865952 0.000376812 1e-05
-0.00843108 0.000374166 1e-05
-0.00821175 0.000371647 1e-05
-0.00799242 0.000369338 1e-05
-0.00777309 0.000367109 1e-05
-0.00755375 0.000364957 1e-05
-0.00733443 0.000362882 1e-05
-0.00712387 0.000360903 1e-05
-0.0069133 0.000359066 1e-05
-0.00670273 0.000357282 1e-05
-0.00649216 0.00035555 1e-05
-0.0062816 0.000353871 1e-05
-0.00607944 0.000352262 1e-05
-0.00587729 0.000350746 1e-05
-0.00567514 0.000349261 1e-05
-0.00547298 0.000347807 1e-05
-0.00527083 0.000346383 1e-05
-0.00507675 0.00034501 1e-05
-0.00488267 0.000343688 1e-05
-0.0046886 0.000342374 1e-05
-0.00449452 0.00034107 1e-05
-0.00430044 0.000339774 1e-05
-0.00411412 0.000338509 1e-05
-0.0039278 0.000337253 1e-05
-0.00374147 0.000335977 1e-05
-0.00355515 0.00033468 1e-05
-0.00336883 0.000333364 1e-05
-0.00318995 0.000332058 1e-05
-0.00301107 0.000330701 1e-05
-0.00283219 0.000329273 1e-05
-0.00265331 0.000327776 1e-05
-0.00247443 0.00032621 1e-05
-0.00231476 0.000324736 1e-05
-0.00215509 0.00032313 1e-05
-0.00199542 0.000321384 1e-05
-0.00183576 0.0003195 1e-05
-0.00178367 0.000318841 1e-05
-0.00175009 0.000318406 1e-05
-0.00171651 0.000317966 1e-05
-0.00168293 0.00031752 1e-05
-0.00164935 0.000317068 1e-05
-0.00161577 0.00031661 1e-05
-0.0014509 0.000314326 1e-05
-0.00128604 0.000311485 1e-05
-0.00112119 0.000308071 1e-05
-0.00095635 0.000304095 1e-05
-0.000791418 0.000299562 1e-05
-0.000633135 0.000294529 1e-05
-0.000474899 0.000288171 1e-05
-0.000316729 0.000280345 1e-05
-0.000158637 0.000271064 1e-05
0 0.00026029 1e-05
0.000105677 0.000252182 1e-05
0.000211178 0.000242024 1e-05
0.000316584 0.000230938 1e-05
0.000421892 0.00021895 1e-05
0.000528387 0.000206903 1e-05
0.000634886 0.000196098 1e-05
0.000741288 0.000184375 1e-05
0.000847589 0.000171767 1e-05
0.000953893 0.00015919 1e-05
0.00106088 0.000147484 1e-05
0.00116821 0.000136744 1e-05
0.0012755 0.000125684 1e-05
0.00138277 0.000114338 1e-05
0.00149005 0.000103193 1e-05
0.00159752 9.25449e-05 1e-05
0.00170568 8.24904e-05 1e-05
0.00181383 7.23436e-05 1e-05
0.001922 6.23514e-05 1e-05
0.00203019 5.25845e-05 1e-05
0.00213833 4.3046e-05 1e-05
0.0022405 3.44368e-05 1e-05
0.00234267 2.58904e-05 1e-05
0.00244487 1.75166e-05 1e-05
0.00254707 9.31371e-06 1e-05
0.00266557 0 1e-05
0.00266913 -2.72466e-07 1e-05
0.00267268 -5.44733e-07 1e-05
0.00267623 -8.16801e-07 1e-05
0.00267979 -1.08867e-06 1e-05
0.00268334 -1.36033e-06 1e-05
0.00279319 -9.74841e-06 1e-05
0.00290305 -1.79902e-05 1e-05
0.00301292 -2.60808e-05 1e-05
0.0031228 -3.40217e-05 1e-05
0.00323259 -4.18071e-05 1e-05
0.00334329 -4.93976e-05 1e-05
0.00345399 -5.70165e-05 1e-05
0.0035647 -6.45228e-05 1e-05
0.00367542 -7.19175e-05 1e-05
0.00378611 -7.91992e-05 1e-05
0.00389767 -8.62704e-05 1e-05
0.00400923 -9.34233e-05 1e-05
0.00412079 -0.000100521 1e-05
0.00423236 -0.000107534 1e-05
0.00434393 -0.000114414 1e-05
0.00445636 -0.000121138 1e-05
0.00456879 -0.000127926 1e-05
0.00468122 -0.000134737 1e-05
0.00479365 -0.000141485 1e-05
0.00490609 -0.000148089 1e-05
0.0050194 -0.000154584 1e-05
0.0051327 -0.000161132 1e-05
0.005246 -0.000167734 1e-05
0.0053593 -0.000174289 1e-05
0.00547262 -0.000180719 1e-05
0.00558681 -0.000187072 1e-05
0.00570099 -0.000193474 1e-05
0.00581517 -0.000199926 1e-05
0.00592936 -0.000206356 1e-05
0.00604356 -0.000212688 1e-05
0.00615863 -0.00021897 1e-05
0.0062737 -0.000225299 1e-05
0.00638877 -0.000231674 1e-05
0.00650384 -0.000238041 1e-05
0.00661893 -0.000244337 1e-05
0.0067349 -0.000250605 1e-05
0.00685087 -0.000256918 1e-05
0.00696683 -0.000263261 1e-05
0.0070828 -0.000269602 1e-05
0.00719878 -0.000275915 1e-05
0.00731565 -0.000282217 1e-05
0.00743252 -0.000288566 1e-05
0.00754939 -0.000294931 1e-05
0.00766625 -0.000301303 1e-05
0.00778313 -0.000307679 1e-05
0.00790091 -0.00031406 1e-05
0.00801869 -0.000320486 1e-05
0.00813647 -0.000326925 1e-05
0.00825424 -0.000333377 1e-05
0.00837203 -0.000339843 1e-05
0.00849073 -0.000346344 1e-05
0.00860942 -0.000352882 1e-05
0.00872811 -0.000359439 1e-05
0.00884681 -0.000366015 1e-05
0.00896551 -0.000372612 1e-05
0.00901411 -0.000375317 1e-05
0.0090627 -0.000378029 1e-05
0.0091113 -0.000380744 1e-05
0.00915989 -0.000383465 1e-05
0.00920756 -0.000386137 1e-05
0.00927877 -0.000390135 1e-05
0.00934998 -0.000394142 1e-05
0.00942118 -0.000398159 1e-05
0.00949239 -0.000402185 1e-05
0.0095636 -0.000406221 1e-05
0.00968415 -0.00041306 1e-05
0.0098047 -0.000419942 1e-05
0.00992524 -0.000426857 1e-05
0.0100458 -0.000433804 1e-05
0.0101663 -0.000440785 1e-05
0.0102878 -0.000447832 1e-05
0.0104093 -0.000454944 1e-05
0.0105308 -0.000462095 1e-05
0.0106523 -0.000469283 1e-05
0.0107738 -0.000476511 1e-05
0.0108962 -0.000483805 1e-05
0.0110186 -0.000491179 1e-05
0.011141 -0.000498599 1e-05
0.0112635 -0.000506064 1e-05
0.0113859 -0.000513566 1e-05
0.0115093 -0.000521143 1e-05
0.0116327 -0.000528802 1e-05
0.0117561 -0.000536527 1e-05
0.0118794 -0.000544301 1e-05
0.0120028 -0.000552112 1e-05
0.0121272 -0.000560007 1e-05
0.0122515 -0.000567987 1e-05
0.0123758 -0.00057605 1e-05
0.0125002 -0.000584166 1e-05
0.0126245 -0.00059232 1e-05
0.0127498 -0.000600569 1e-05
0.0128751 -0.000608904 1e-05
0.0130004 -0.000617326 1e-05
0.0131257 -0.000625812 1e-05
0.0132511 -0.000634343 1e-05
0.0133774 -0.00064298 1e-05
0.0135036 -0.000651707 1e-05
0.0136299 -0.000660523 1e-05
0.0137562 -0.000669413 1e-05
0.0138825 -0.000678356 1e-05
0.0140098 -0.000687416 1e-05
0.014137 -0.000696568 1e-05
0.0142643 -0.000705809 1e-05
0.0143915 -0.000715126 1e-05
0.0145188 -0.000724515 1e-05
0.0146471 -0.000734032 1e-05
0.0147753 -0.000743646 1e-05
0.0149035 -0.000753345 1e-05
0.0150318 -0.000763126 1e-05
0.0151601 -0.000772994 1e-05
0.0152893 -0.000783003 1e-05
0.0154186 -0.000793109 1e-05
0.0155478 -0.000803302 1e-05
0.015677 -0.000813583 1e-05
0.0158063 -0.000823958 1e-05
0.0158699 -0.000829098 1e-05
0.0159334 -0.000834262 1e-05
0.015997 -0.000839447 1e-05
0.0160605 -0.000844656 1e-05
0.0161211 -0.000849643 1e-05
0.0161884 -0.000855204 1e-05
0.0162557 -0.00086079 1e-05
0.016323 -0.000866401 1e-05
0.0163903 -0.000872037 1e-05
0.0164576 -0.000877699 1e-05
0.0165889 -0.000888786 1e-05
0.0167201 -0.000899978 1e-05
0.0168514 -0.000911268 1e-05
0.0169826 -0.000922656 1e-05
0.0171139 -0.000934149 1e-05
0.0172462 -0.000945818 1e-05
0.0173785 -0.000957606 1e-05
0.0175108 -0.000969497 1e-05
0.017643 -0.000981491 1e-05
0.0177754 -0.000993595 1e-05
0.0179087 -0.00100588 1e-05
0.018042 -0.00101829 1e-05
0.0181753 -0.00103082 1e-05
0.0183086 -0.00104346 1e-05
0.018442 -0.0010562 1e-05
0.0185763 -0.00106914 1e-05
0.0187107 -0.00108221 1e-05
0.018845 -0.00109541 1e-05
0.0189793 -0.00110872 1e-05
0.0191137 -0.00112215 1e-05
0.0192491 -0.00113578 1e-05
0.0193845 -0.00114955 1e-05
0.0195199 -0.00116344 1e-05
0.0196553 -0.00117746 1e-05
0.0197907 -0.00119161 1e-05
0.0199272 -0.00120597 1e-05
0.0200636 -0.00122047 1e-05
0.0202 -0.0012351 1e-05
0.0203365 -0.00124986 1e-05
0.020473 -0.00126476 1e-05
0.0206105 -0.00127989 1e-05
0.020748 -0.00129516 1e-05
0.0208855 -0.00131056 1e-05
0.0210229 -0.0013261 1e-05
0.0211606 -0.00134179 1e-05
0.0212243 -0.00134912 1e-05
0.021288 -0.00135648 1e-05
0.0213517 -0.00136387 1e-05
0.0214154 -0.00137128 1e-05
0.0214764 -0.00137841 1e-05
0.0215518 -0.00138726 1e-05
0.0216272 -0.00139615 1e-05
0.0217026 -0.00140508 1e-05
0.021778 -0.00141405 1e-05
0.0218535 -0.00142307 1e-05
0.0219931 -0.00143984 1e-05
0.0221328 -0.00145676 1e-05
0.0222724 -0.00147383 1e-05
0.022412 -0.00149104 1e-05
0.0225517 -0.00150842 1e-05
0.0226925 -0.00152606 1e-05
0.0228332 -0.00154386 1e-05
0.0229739 -0.00156181 1e-05
0.0231146 -0.00157991 1e-05
0.0232555 -0.00159819 1e-05
0.0233973 -0.00161674 1e-05
0.0235391 -0.00163546 1e-05
0.0236809 -0.00165434 1e-05
0.0238227 -0.00167337 1e-05
0.0239647 -0.00169259 1e-05
0.0241076 -0.00171209 1e-05
0.0242505 -0.00173177 1e-05
0.0243934 -0.00175161 1e-05
0.0245363 -0.00177162 1e-05
0.0246794 -0.00179182 1e-05
0.0248234 -0.00181232 1e-05
0.0249674 -0.00183299 1e-05
0.0251114 -0.00185383 1e-05
0.0252554 -0.00187485 1e-05
0.0253996 -0.00189608 1e-05
0.0254972 -0.00191056 1e-05
0.0255948 -0.00192512 1e-05
0.0256924 -0.00193976 1e-05
0.0257899 -0.00195448 1e-05
0.0258818 -0.00196842 1e-05
0.0259305 -0.00197585 1e-05
0.0259793 -0.00198331 1e-05
0.026028 -0.00199078 1e-05
0.0260767 -0.00199827 1e-05
0.0261255 -0.00200579 1e-05
0.0262718 -0.00202841 1e-05
0.0264181 -0.00205121 1e-05
0.0265643 -0.0020742 1e-05
0.0267105 -0.00209736 1e-05
0.026857 -0.00212075 1e-05
0.0270044 -0.00214448 1e-05
0.0271518 -0.00216841 1e-05
[...]
POINT_DATA 10941
 FIELD attributes 2
p 1 10941 float
-0.143139 -0.137147 -0.131328 -0.126139 -0.11845 -0.102686 -0.0884264 -0.0741952 -0.0663676 -0.0591646 -0.0533489 -0.0513289 -0.0495724 -0.0479697 -0.0463686 -0.0441939 -0.0411797 -0.0381853 -0.0352098 -0.032415 -0.0302785 -0.0263875 -0.0228968 -0.0195654 -0.0169424 -0.0146163 -0.0119308 -0.0092553 -0.00714476 -0.00560612 -0.00407193 -0.00221418 -0.000372636 0.000966976 0.00201394 0.00301272 0.00430402 0.00541681 0.006313 0.00710004 0.0077232 0.00861055 0.00925877 0.00983743 0.0103988 0.0107559 0.011346 0.0116943 0.0120423 0.0123902 0.0125834 0.01292 0.013096 0.0132719 0.0134477 0.0135191 0.0136711 0.0137128 0.0137543 0.0137958 0.0137643 0.0137723 0.0137019 0.0136313 0.0135608 0.0134375 0.0133206 0.0131457 0.0129707 0.0127958 0.0125818 0.0123379 0.0120494 0.011761 0.0114725 0.011156 0.010751 0.0103104 0.00986985 0.00942936 0.00897258 0.00836057 0.00772481 0.007089 0.00645314 0.00624567 0.00611405 0.00598246 0.00585089 0.00571935 0.00557968 0.00443592 0.00328278 0.00213358 0.000988279 -0.000281037 -0.00189551 -0.00354069 -0.00518237 -0.00682043 -0.0099055 -0.0115694 -0.0122316 -0.0128681 -0.0126899 -0.0115932 -0.0100057 -0.00843879 -0.00735957 -0.00658296 -0.00578657 -0.00462701 -0.00350206 -0.00294056 -0.00271357 -0.0026165 -0.00216842 -0.00185642 -0.00158202 -0.00130378 -0.0012099 -0.000961134 -0.000768389 -0.000573242 -0.000375719 -0.000144006 -0.000136143 -0.000128278 -0.000120411 -0.000112541 -0.000104644 2.76488e-05 0.000158039 0.000289707 0.000422636 0.000527132 0.000643413 0.000681505 0.00072041 0.000760119 0.000762963 0.0008528 0.000861267 0.000852508 0.000832738 0.000797059 0.000841935 0.000860467 0.000822106 0.000761216 0.000696106 0.000702739 0.000709065 0.000653284 0.000567482 0.000482289 0.000459721 0.000436909 0.000381367 0.00028372 0.00018649 0.000143861 0.000101027 4.07097e-05 -6.27698e-05 -0.000169162 -0.000227502 -0.000291782 -0.000366581 -0.00046059 -0.000574203 -0.000645161 -0.000726839 -0.000812529 -0.000900182 -0.00101863 -0.0011002 -0.00119351 -0.00128686 -0.00138026 -0.00149087 -0.00158305 -0.00168153 -0.00178008 -0.00187869 -0.00198165 -0.00202138 -0.00206277 -0.00210417 -0.00214558 -0.00218621 -0.00224583 -0.00230548 -0.00236515 -0.00242484 -0.00248683 -0.00258404 -0.00268613 -0.0027883 -0.00289055 -0.00299869 -0.00308982 -0.00319244 -0.00329516 -0.00339796 -0.00350991 -0.00359655 -0.00369703 -0.0037989 -0.00390355 -0.0040146 -0.00410089 -0.00419343 -0.004293 -0.00439828 -0.00450629 -0.00459068 -0.00467529 -0.00477198 -0.00487593 -0.00497999 -0.00506139 -0.005143 -0.00523334 -0.00533227 -0.00543133 -0.00550865 -0.00558617 -0.00566975 -0.0057625 -0.00585539 -0.00592732 -0.00600147 -0.00607964 -0.00616142 -0.00624727 -0.00631276 -0.0063827 -0.00645389 -0.00652527 -0.0066026 -0.00666198 -0.00672501 -0.00678824 -0.00685166 -0.00691696 -0.00694226 -0.00696863 -0.00699505 -0.00702151 -0.00704679 -0.00707459 -0.00710244 -0.00713035 -0.0071583 -0.00718741 -0.00722972 -0.00727361 -0.00731772 -0.00736203 -0.00740945 -0.0074391 -0.00747261 -0.00750634 -0.00754109 -0.00757871 -0.00759742 -0.00761792 -0.00764059 -0.00766572 -0.0076918 -0.00769926 -0.007707 -0.00771798 -0.00773163 -0.00774552 -0.00774109 -0.00773695 -0.0077348 -0.00773571 -0.00773685 -0.00771995 -0.00770401 -0.00768913 -0.00767506 -0.00766295 -0.00763314 -0.00760454 -0.00757624 -0.00754823 -0.00752128 -0.00750147 -0.00748188 -0.00746237 -0.00744291 -0.00742435 -0.00740139 -0.00737851 -0.00735572 -0.00733301 -0.00731055 -0.00725276 -0.0071961 -0.00713975 -0.00708371 -0.00702799 -0.00695493 -0.00688341 -0.00681275 -0.00674223 -0.00667182 -0.00658432 -0.00649718 -0.00641144 -0.00632592 -0.0062406 -0.00613849 -0.00603674 -0.0059343 -0.00583347 -0.00573315 -0.00561634 -0.0054989 -0.00538145 -0.00526438 -0.00514864 -0.00505997 -0.0049706 -0.00488141 -0.00479238 -0.00470867 -0.00466434 -0.00462005 -0.0045758 -0.0045316 -0.00448685 -0.00433816 -0.0041904 -0.00404302 -0.00389603 -0.00374662 -0.00358202 -0.00341877 -0.00325662 -0.00309274 -0.00292826 -0.00274895 -0.00257007 -0.00239062 -0.00221135 -0.00203209 -0.00183832 -0.00164376 -0.00144774 -0.00125243 -0.00105871 -0.000876399 -0.000691965 -0.000507867 -0.000324107 -0.000153495 -0.000124677 -9.58682e-05 -6.70674e-05 -3.82751e-05 -8.97539e-06 0.000216529 0.000441288 0.000665604 0.000889475 0.00111781 0.00135851 0.00159767 0.00183544 0.00207651 0.00231861 0.00257254 0.00282599 0.00308193 0.00333675 0.00359189 0.00385849 0.00412754 0.00439768 0.00466734 0.00493582 0.00505138 0.00516863 0.0052858 0.00540288 0.00551624 0.00568266 0.00584891 0.00601499 0.0061809 0.0063503 0.00664738 0.00694207 0.00723626 0.0075328 0.00783301 0.00814153 0.00844953 0.00875813 0.00906835 0.00937928 0.00969823 0.0100191 0.0103425 0.0106653 0.0109865 0.0111547 0.0113253 0.0114959 0.0116663 0.0118303 0.0119947 0.012159 0.0123231 0.0124871 0.012655 0.0130006 0.0133438 0.0136864 0.014032 0.0143823 0.0147367 0.0150906 0.0154463 0.015803 0.016161 0.016523 0.0168881 0.0172552 0.0176216 0.0179879 0.0180864 0.0181863 0.0182862 0.0183861 0.0184842 0.0187598 0.0190352 0.0193102 0.0195853 0.0198669 0.020251 0.0206331 0.0210137 0.0214003 0.0217897 0.022179 0.0225677 0.0229627 0.0233556 0.0237494 0.0240519 0.0243582 0.0246649 0.0249712 0.0252614 0.0253578 0.0254542 0.0255506 0.0256471 0.0257458 0.026152 0.0265567 0.0269608 0.0273677 0.0277821 0.0281921 0.0286014 0.0290135 0.0294271 0.0298434 0.0302554 0.0306719 0.0310895 0.0315066 0.0319262 0.0319419 0.0319578 0.0319737 0.0319896 0.0320055 0.0324114 0.0328168 0.0332216 0.0336273 0.0340433 0.0344669 0.03489 0.0353136 0.0357419 0.0361737 0.0365969 0.0370237 0.037453 0.0378816 0.0383133 0.03837 0.0384273 0.0384849 0.0385425 0.0385995 0.0389731 0.0393463 0.039719 0.0400936 0.0404799 0.0409087 0.0413368 0.041768 0.0422068 0.0426502 0.0430765 0.0435082 0.0439435 0.0443782 0.0448177 0.0448501 0.0448831 0.0449163 0.0449495 0.0449825 0.0453838 0.0457846 0.0461847 0.0465879 0.0470011 0.0474316 0.0478612 0.0482963 0.0487332 0.0491762 0.0494122 0.0496502 0.0498899 0.0501295 0.05036 0.0505572 0.0507543 0.0509513 0.0511498 0.0513512 0.0517834 0.0522147 0.0526462 0.053082 0.0535245 0.0538555 0.0541877 0.0545219 0.0548556 0.0551727 0.0552747 0.0553766 0.0554785 0.0555812 0.0556849 0.056115 0.0565441 0.0569724 0.057405 0.0578449 0.0581786 0.0585128 0.0588488 0.0591843 0.0595036 0.0595997 0.0596958 0.0597919 0.0598887 0.0599863 0.0604122 0.0608371 0.0612617 0.0616893 0.0621248 0.0623878 0.0626509 0.0629153 0.0631795 0.063434 0.0635958 0.0637575 0.0639192 0.064082 0.0642463 0.0646663 0.0650855 0.0655059 0.0659275 0.0663572 0.0664949 0.0666325 0.0667709 0.0669093 0.0670452 0.0673271 0.0676088 0.0678903 0.0681741 0.0684614 0.0688537 0.0692458 0.0696407 0.0700353 0.0704145 0.07044 0.0704656 0.0704912 0.0705171 0.0705431 0.0709578 0.0713726 0.0717875 0.0722069 0.0726315 0.0728231 0.0730146 0.0732082 0.0734018 0.0735929 0.0738137 0.0740344 0.0742551 0.0744797 0.0747048 0.0750975 0.0754901 0.0758892 0.0762885 0.0766866 0.0767 0.0767134 0.0767267 0.0767404 0.0767541 0.077162 0.0775707 0.0779802 0.0783988 0.0788127 0.078997 0.0791813 0.0793699 0.0795585 0.0797505 0.0799656 0.0801808 0.080396 0.0806176 0.0808358 0.0812248 0.0816138 0.0820141 0.0824147 0.0828031 0.0828272 0.0828513 0.082876 0.0829007 0.0829255 0.0832873 0.0836489 0.0840103 0.0843843 0.084743 0.0850463 0.0853521 0.0856671 0.0859816 0.0863461 0.0863889 0.0864318 0.0864747 0.0865196 0.0865655 0.0869113 0.0872624 0.0876124 0.0879835 0.0883393 0.088651 0.0889683 0.0893022 0.0896341 0.0899597 0.0900324 0.0901091 0.0901876 0.0902659 0.0903506 0.0905786 0.0908055 0.0910312 0.0912574 0.0914816 0.0917581 0.0920346 0.0923151 0.0925993 0.0928741 0.0931256 0.0933752 0.0936261 0.0938796 0.0941299 0.0943588 0.0945875 0.0948147 0.0950405 0.0952634 0.0953067 0.0953499 0.095393 0.0954362 0.0954825 0.0956476 0.0958119 0.0959754 0.0961381 0.0962598 0.0964847 0.0966748 0.0968637 0.0970368 0.0971576 0.0973738 0.0975721 0.0977437 0.0978645 0.0979724 0.0981719 0.0983704 0.0985188 0.0986154 0.0987114 0.0988955 0.0990786 0.0992105 0.0992958 0.0993809 0.0995505 0.0997084 0.0998232 0.0999112 0.0999861 0.100142 0.100268 0.100372 0.100466 0.100532 0.100675 0.100774 0.100868 0.100961 0.101022 0.101144 0.101228 0.101313 0.101397 0.10146 0.101559 0.101635 0.10171 0.101786 0.10185 0.101929 0.101996 0.102063 0.10213 0.102195 0.102214 0.102231 0.102248 0.102265 0.102283 0.102325 0.102367 0.102409 0.102451 0.102486 0.102545 0.102596 0.102648 0.1027 0.102735 0.102795 0.102839 0.102884 0.102929 0.10295 0.103009 0.103047 0.103085 0.103123 0.103132 0.10319 0.103222 0.103253 0.103285 0.103283 0.103339 0.103365 0.103391 0.103416 0.103405 0.103459 0.103479 0.103499 0.103519 0.1035 0.103549 0.103566 0.103581 0.103592 0.103569 0.103612 0.103627 0.103637 0.10364 0.103615 0.103651 0.103665 0.10367 0.103666 0.103638 0.103669 0.10368 0.103681 0.103671 0.103641 0.103665 0.103674 0.103671 0.103656 0.103623 0.103643 0.103649 0.103643 0.103622 0.103588 0.103602 0.103606 0.103596 0.103571 0.103535 0.103545 0.103546 0.103533 0.103505 0.103467 0.103473 0.103471 0.103455 0.103423 0.103384 0.103386 0.103382 0.103363 0.103329 0.103288 0.103286 0.103279 0.103258 0.103221 0.103179 0.103174 0.103164 0.103141 0.103102 0.103059 0.103051 0.103039 0.103013 0.102972 0.102929 0.102917 0.102903 0.102875 0.102833 0.102788 0.102774 0.102757 0.102728 0.102685 0.102639 0.102622 0.102604 0.102572 0.102528 0.102482 0.102463 0.102442 0.102409 0.102364 0.102317 0.102296 0.102273 0.102239 0.102193 0.102146 0.102123 0.102098 0.102063 0.102016 0.101969 0.101943 0.101917 0.101881 0.101834 0.101786 0.101759 0.101731 0.101694 0.101646 0.101599 0.10157 0.101541 0.101502 0.101455 0.101406 0.101376 0.101346 0.101307 0.101259 0.10121 0.101179 0.101147 0.101107 0.101059 0.101011 0.100978 0.100945 0.100905 0.100857 0.100808 0.100775 0.100741 0.1007 0.100651 0.100603 0.100568 0.100533 0.100492 0.100443 0.100395 0.100359 0.100323 0.100281 0.100233 0.100184 0.100147 0.100111 0.100068 0.10002 0.099971 0.0999336 0.099896 0.0998532 0.0998048 0.0997562 0.0997182 0.0996799 0.0996367 0.0995885 0.09954 0.0995013 0.0994624 0.099419 0.0993709 0.0993225 0.0992833 0.0992437 0.0992001 0.0991522 0.0991039 0.0990642 0.0990241 0.0989803 0.0989325 0.0988844 0.0988442 0.0988036 0.0987596 0.098712 0.098664 0.0986234 0.0985824 0.0985383 0.0984908 0.098443 0.098402 0.0983606 0.0983164 0.0982691 0.0982214 0.09818 0.0981383 0.098094 0.0980469 0.0979993 0.0979577 0.0979156 0.0978712 0.0978243 0.0977768 0.097735 0.0976926 0.0976482 0.0976014 0.0975541 0.097512 0.0974694 0.0974249 0.0973783 0.0973312 0.0972889 0.0972461 0.0972015 0.0971551 0.0971082 0.0970657 0.0970227 0.0969782 0.0969319 0.0968852 0.0968425 0.0967995 0.0967549 0.0967089 0.0966623 0.0966196 0.0965765 0.096532 0.0964862 0.0964399 0.0963971 0.0963539 0.0963096 0.096264 0.096218 0.0961752 0.0961321 0.0960879 0.0960427 0.095997 0.0959543 0.0959113 0.0958674 0.0958225 0.0957772 0.0957348 0.095692 0.0956484 0.095604 0.0955593 0.0955171 0.0954746 0.0954316 0.0953878 0.0953437 0.095302 0.0952601 0.0952176 0.0951747 0.0951315 0.0950904 0.0950492 0.0950077 0.0949658 0.0949236 0.0948835 0.0948433 0.094803 0.0947624 0.0947217 0.0946829 0.0946441 0.0946054 0.0945666 0.0945278 0.0944908 0.0944539 0.0944173 0.0943809 0.0943446 0.09431 0.0942758 0.094242 0.0942087 0.0941758 0.0941444 0.0941138 0.094084 0.0940548 0.0940265 0.0939995 0.0939739 0.0939494 0.0939258 0.0939037 0.0938828 0.0938642 0.0938468 0.0938306 0.0938167 0.0938041 0.0937953 0.0937884 0.0937832 0.0937819 0.0937823 0.0937868 0.0937927 0.0937998 0.0938114 0.0938256 0.0938543 0.0938861 0.0939198 0.0939693 0.0940234 0.0940628 0.0941013 0.0941396 0.0941677 0.0942198 0.0943641 0.0945093 0.0946554 0.0948736 0.095098 0.0951384 0.0951751 0.0951791 0.094914 0.0947039 0.0944532 0.0941833 0.0938818 0.0935422 0.093252 0.0929633 0.0926774 0.0923918 0.0921055 0.0918603 0.0916089 0.0913345 0.0910333 0.0907255 0.0904512 0.090173 0.0898612 0.0895132 0.0891611 0.0888365 0.0885109 0.0881606 0.0877835 0.0874053 0.08705 0.0866946 0.0863185 0.085921 0.0855233 0.0851446 0.0847659 0.0843656 0.0839434 0.0835211 0.0831148 0.0827085 0.0822799 0.0818291 0.081378 0.0809404 0.0805028 0.080043 0.0795611 0.0790791 0.0786081 0.0781371 0.0776432 0.0771267 0.0766101 0.0761023 0.0755945 0.0750622 0.0745063 0.0739503 0.073401 0.0728517 0.0722759 0.0716746 0.0710731 0.0704763 0.0698795 0.0692543 0.0686017 0.0679491 0.0672989 0.0666488 0.0659673 0.0652558 0.0645442 0.0638327 0.0631213 0.0623765 0.0615998 0.060823 0.0600438 0.0592647 0.0584465 0.0575907 0.056735 0.0558738 0.0550127 0.0541133 0.0531769 0.0522407 0.051296 0.0503513 0.0493508 0.0482967 0.0472426 0.0461756 0.0451085 0.044009 0.0428779 0.041747 0.0406003 0.0394537 0.0381925 0.0368208 0.0354494 0.0340528 0.0326563 0.0313047 0.0299957 0.0286866 0.0273561 0.0260257 0.024305 0.022209 0.0201144 0.0179652 0.0158551 0.0142552 0.0131521 0.0120841 0.0110057 0.00966682 0.00746164 0.00458972 0.00123989