# vtk DataFile Version 2.0
track0
ASCII
DATASET POLYDATA
POINTS 10941 double
-0.0205 0.001 1e-05
-0.0202034 0.000995436 1e-05
-0.0199071 0.000981948 1e-05
-0.0196114 0.000959661 1e-05
-0.0193164 0.000928341 1e-05
-0.0190172 0.00088977 1e-05
-0.0187132 0.00085095 1e-05
-0.0184092 0.000813011 1e-05
-0.0181051 0.000775936 1e-05
-0.0178006 0.000741564 1e-05
-0.0174976 0.000710073 1e-05
-0.0173928 0.000700172 1e-05
-0.0172881 0.000690633 1e-05
-0.0171833 0.000681394 1e-05
-0.0170784 0.000672419 1e-05
-0.0169359 0.000660566 1e-05
-0.0167565 0.000646233 1e-05
-0.016577 0.000632668 1e-05
-0.0163974 0.000619839 1e-05
-0.0162178 0.000607714 1e-05
-0.0160387 0.000596226 1e-05
-0.0157586 0.00057874 1e-05
-0.0154784 0.000562764 1e-05
-0.0151981 0.000548033 1e-05
-0.0149177 0.000534421 1e-05
-0.0146381 0.000521492 1e-05
-0.0143692 0.000509508 1e-05
-0.0141002 0.000498559 1e-05
-0.0138312 0.000488573 1e-05
-0.0135621 0.000479202 1e-05
-0.0132934 0.000470141 1e-05
-0.0130353 0.000461722 1e-05
-0.0127771 0.00045406 1e-05
-0.0125188 0.000447097 1e-05
-0.0122606 0.000440459 1e-05
-0.0120025 0.000434018 1e-05
-0.0117547 0.000427998 1e-05
-0.0115068 0.000422533 1e-05
-0.0112589 0.000417462 1e-05
-0.011011 0.000412617 1e-05
-0.0107632 0.000407942 1e-05
-0.0105252 0.000403542 1e-05
-0.0102873 0.000399556 1e-05
-0.0100493 0.000395785 1e-05
-0.0098113 0.000392171 1e-05
-0.00957337 0.000388703 1e-05
-0.00934491 0.000385412 1e-05
-0.00911645 0.000382434 1e-05
-0.00888798 0.000379567 1e-05
-0.00865952 0.000376812 1e-05
-0.00843108 0.000374166 1e-05
-0.00821175 0.000371647 1e-05
-0.00799242 0.000369338 1e-05
-0.00777309 0.000367109 1e-05
-0.00755375 0.000364957 1e-05
-0.00733443 0.000362882 1e-05
-0.00712387 0.000360903 1e-05
-0.0069133 0.000359066 1e-05
-0.00670273 0.000357282 1e-05
-0.00649216 0.00035555 1e-05
-0.0062816 0.000353871 1e-05
-0.00607944 0.000352262 1e-05
-0.00587729 0.000350746 1e-05
-0.00567514 0.000349261 1e-05
-0.00547298 0.000347807 1e-05
-0.00527083 0.000346383 1e-05
-0.00507675 0.00034501 1e-05
-0.00488267 0.000343688 1e-05
-0.0046886 0.000342374 1e-05
-0.00449452 0.00034107 1e-05
-0.00430044 0.000339774 1e-05
-0.00411412 0.000338509 1e-05
-0.0039278 0.000337253 1e-05
-0.00374147 0.000335977 1e-05
-0.00355515 0.00033468 1e-05
-0.00336883 0.000333364 1e-05
-0.00318995 0.000332058 1e-05
-0.00301107 0.000330701 1e-05
-0.00283219 0.000329273 1e-05
-0.00265331 0.000327776 1e-05
-0.00247443 0.00032621 1e-05
-0.00231476 0.000324736 1e-05
-0.00215509 0.00032313 1e-05
-0.00199542 0.000321384 1e-05
-0.00183576 0.0003195 1e-05
-0.00178367 0.000318841 1e-05
-0.00175009 0.000318406 1e-05
-0.00171651 0.000317966 1e-05
-0.00168293 0.00031752 1e-05
-0.00164935 0.000317068 1e-05
-0.00161577 0.00031661 1e-05
-0.0014509 0.000314326 1e-05
-0.00128604 0.000311485 1e-05
-0.00112119 0.000308071 1e-05
-0.00095635 0.000304095 1e-05
-0.000791418 0.000299562 1e-05
-0.000633135 0.000294529 1e-05
-0.000474899 0.000288171 1e-05
-0.000316729 0.000280345 1e-05
-0.000158637 0.000271064 1e-05
0 0.00026029 1e-05
0.000105677 0.000252182 1e-05
0.000211178 0.000242024 1e-05
0.000316584 0.000230938 1e-05
0.000421892 0.00021895 1e-05
0.000528387 0.000206903 1e-05
0.000634886 0.000196098 1e-05
0.000741288 0.000184375 1e-05
0.000847589 0.000171767 1e-05
0.000953893 0.00015919 1e-05
0.00106088 0.000147484 1e-05
0.00116821 0.000136744 1e-05
0.0012755 0.000125684 1e-05
0.00138277 0.000114338 1e-05
0.00149005 0.000103193 1e-05
0.00159752 9.25449e-05 1e-05
0.00170568 8.24904e-05 1e-05
0.00181383 7.23436e-05 1e-05
0.001922 6.23514e-05 1e-05
0.00203019 5.25845e-05 1e-05
0.00213833 4.3046e-05 1e-05
0.0022405 3.44368e-05 1e-05
0.00234267 2.58904e-05 1e-05
0.00244487 1.75166e-05 1e-05
0.00254707 9.31371e-06 1e-05
0.00266557 0 1e-05
0.00266913 -2.72466e-07 1e-05
0.00267268 -5.44733e-07 1e-05
0.00267623 -8.16801e-07 1e-05
0.00267979 -1.08867e-06 1e-05
0.00268334 -1.36033e-06 1e-05
0.00279319 -9.74841e-06 1e-05
0.00290305 -1.79902e-05 1e-05
0.00301292 -2.60808e-05 1e-05
0.0031228 -3.40217e-05 1e-05
0.00323259 -4.18071e-05 1e-05
0.00334329 -4.93976e-05 1e-05
0.00345399 -5.70165e-05 1e-05
0.0035647 -6.45228e-05 1e-05
0.00367542 -7.19175e-05 1e-05
0.00378611 -7.91992e-05 1e-05
0.00389767 -8.62704e-05 1e-05
0.00400923 -9.34233e-05 1e-05
0.00412079 -0.000100521 1e-05
0.00423236 -0.000107534 1e-05
0.00434393 -0.000114414 1e-05
0.00445636 -0.000121138 1e-05
0.00456879 -0.000127926 1e-05
0.00468122 -0.000134737 1e-05
0.00479365 -0.000141485 1e-05
0.00490609 -0.000148089 1e-05
0.0050194 -0.000154584 1e-05
0.0051327 -0.000161132 1e-05
0.005246 -0.000167734 1e-05
0.0053593 -0.000174289 1e-05
0.00547262 -0.000180719 1e-05
0.00558681 -0.000187072 1e-05
0.00570099 -0.000193474 1e-05
0.00581517 -0.000199926 1e-05
0.00592936 -0.000206356 1e-05
0.00604356 -0.000212688 1e-05
0.00615863 -0.00021897 1e-05
0.0062737 -0.000225299 1e-05
0.00638877 -0.000231674 1e-05
0.00650384 -0.000238041 1e-05
0.00661893 -0.000244337 1e-05
0.0067349 -0.000250605 1e-05
0.00685087 -0.000256918 1e-05
0.00696683 -0.000263261 1e-05
0.0070828 -0.000269602 1e-05
0.00719878 -0.000275915 1e-05
0.00731565 -0.000282217 1e-05
0.00743252 -0.000288566 1e-05
0.00754939 -0.000294931 1e-05
0.00766625 -0.000301303 1e-05
0.00778313 -0.000307679 1e-05
0.00790091 -0.00031406 1e-05
0.00801869 -0.000320486 1e-05
0.00813647 -0.000326925 1e-05
0.00825424 -0.000333377 1e-05
0.00837203 -0.000339843 1e-05
0.00849073 -0.000346344 1e-05
0.00860942 -0.000352882 1e-05
0.00872811 -0.000359439 1e-05
0.00884681 -0.000366015 1e-05
0.00896551 -0.000372612 1e-05
0.00901411 -0.000375317 1e-05
0.0090627 -0.000378029 1e-05
0.0091113 -0.000380744 1e-05
0.00915989 -0.000383465 1e-05
0.00920756 -0.000386137 1e-05
0.00927877 -0.000390135 1e-05
0.00934998 -0.000394142 1e-05
0.00942118 -0.000398159 1e-05
0.00949239 -0.000402185 1e-05
0.0095636 -0.000406221 1e-05
0.00968415 -0.00041306 1e-05
0.0098047 -0.000419942 1e-05
0.00992524 -0.000426857 1e-05
0.0100458 -0.000433804 1e-05
0.0101663 -0.000440785 1e-05
0.0102878 -0.000447832 1e-05
0.0104093 -0.000454944 1e-05
0.0105308 -0.000462095 1e-05
0.0106523 -0.000469283 1e-05
0.0107738 -0.000476511 1e-05
0.0108962 -0.000483805 1e-05
0.0110186 -0.000491179 1e-05
0.011141 -0.000498599 1e-05
0.0112635 -0.000506064 1e-05
0.0113859 -0.000513566 1e-05
0.0115093 -0.000521143 1e-05
0.0116327 -0.000528802 1e-05
0.0117561 -0.000536527 1e-05
0.0118794 -0.000544301 1e-05
0.0120028 -0.000552112 1e-05
0.0121272 -0.000560007 1e-05
0.0122515 -0.000567987 1e-05
0.0123758 -0.00057605 1e-05
0.0125002 -0.000584166 1e-05
0.0126245 -0.00059232 1e-05
0.0127498 -0.000600569 1e-05
0.0128751 -0.000608904 1e-05
0.0130004 -0.000617326 1e-05
0.0131257 -0.000625812 1e-05
0.0132511 -0.000634343 1e-05
0.0133774 -0.00064298 1e-05
0.0135036 -0.000651707 1e-05
0.0136299 -0.000660523 1e-05
0.0137562 -0.000669413 1e-05
0.0138825 -0.000678356 1e-05
0.0140098 -0.000687416 1e-05
0.014137 -0.000696568 1e-05
0.0142643 -0.000705809 1e-05
0.0143915 -0.000715126 1e-05
0.0145188 -0.000724515 1e-05
0.0146471 -0.000734032 1e-05
0.0147753 -0.000743646 1e-05
0.0149035 -0.000753345 1e-05
0.0150318 -0.000763126 1e-05
0.0151601 -0.000772994 1e-05
0.0152893 -0.000783003 1e-05
0.0154186 -0.000793109 1e-05
0.0155478 -0.000803302 1e-05
0.015677 -0.000813583 1e-05
0.0158063 -0.000823958 1e-05
0.0158699 -0.000829098 1e-05
0.0159334 -0.000834262 1e-05
0.015997 -0.000839447 1e-05
0.0160605 -0.000844656 1e-05
0.0161211 -0.000849643 1e-05
0.0161884 -0.000855204 1e-05
0.0162557 -0.00086079 1e-05
0.016323 -0.000866401 1e-05
0.0163903 -0.000872037 1e-05
0.0164576 -0.000877699 1e-05
0.0165889 -0.000888786 1e-05
0.0167201 -0.000899978 1e-05
0.0168514 -0.000911268 1e-05
0.0169826 -0.000922656 1e-05
0.0171139 -0.000934149 1e-05
0.0172462 -0.000945818 1e-05
0.0173785 -0.000957606 1e-05
0.0175108 -0.000969497 1e-05
0.017643 -0.000981491 1e-05
0.0177754 -0.000993595 1e-05
0.0179087 -0.00100588 1e-05
0.018042 -0.00101829 1e-05
0.0181753 -0.00103082 1e-05
0.0183086 -0.00104346 1e-05
0.018442 -0.0010562 1e-05
0.0185763 -0.00106914 1e-05
0.0187107 -0.00108221 1e-05
0.018845 -0.00109541 1e-05
0.0189793 -0.00110872 1e-05
0.0191137 -0.00112215 1e-05
0.0192491 -0.00113578 1e-05
0.0193845 -0.00114955 1e-05
0.0195199 -0.00116344 1e-05
0.0196553 -0.00117746 1e-05
0.0197907 -0.00119161 1e-05
0.0199272 -0.00120597 1e-05
0.0200636 -0.00122047 1e-05
0.0202 -0.0012351 1e-05
0.0203365 -0.00124986 1e-05
0.020473 -0.00126476 1e-05
0.0206105 -0.00127989 1e-05
0.020748 -0.00129516 1e-05
0.0208855 -0.00131056 1e-05
0.0210229 -0.0013261 1e-05
0.0211606 -0.00134179 1e-05
0.0212243 -0.00134912 1e-05
0.021288 -0.00135648 1e-05
0.0213517 -0.00136387 1e-05
0.0214154 -0.00137128 1e-05
0.0214764 -0.00137841 1e-05
0.0215518 -0.00138726 1e-05
0.0216272 -0.00139615 1e-05
0.0217026 -0.00140508 1e-05
0.021778 -0.00141405 1e-05
0.0218535 -0.00142307 1e-05
0.0219931 -0.00143984 1e-05
0.0221328 -0.00145676 1e-05
0.0222724 -0.00147383 1e-05
0.022412 -0.00149104 1e-05
0.0225517 -0.00150842 1e-05
0.0226925 -0.00152606 1e-05
0.0228332 -0.00154386 1e-05
0.0229739 -0.00156181 1e-05
0.0231146 -0.00157991 1e-05
0.0232555 -0.00159819 1e-05
0.0233973 -0.00161674 1e-05
0.0235391 -0.00163546 1e-05
0.0236809 -0.00165434 1e-05
0.0238227 -0.00167337 1e-05
0.0239647 -0.00169259 1e-05
0.0241076 -0.00171209 1e-05
0.0242505 -0.00173177 1e-05
0.0243934 -0.00175161 1e-05
0.0245363 -0.00177162 1e-05
0.0246794 -0.00179182 1e-05
0.0248234 -0.00181232 1e-05
0.0249674 -0.00183299 1e-05
0.0251114 -0.00185383 1e-05
0.0252554 -0.00187485 1e-05
0.0253996 -0.00189608 1e-05
0.0254972 -0.00191056 1e-05
0.0255948 -0.00192512 1e-05
0.0256924 -0.00193976 1e-05
0.0257899 -0.00195448 1e-05
0.0258818 -0.00196842 1e-05
0.0259305 -0.00197585 1e-05
0.0259793 -0.00198331 1e-05
0.026028 -0.00199078 1e-05
0.0260767 -0.00199827 1e-05
0.0261255 -0.00200579 1e-05
0.0262718 -0.00202841 1e-05
0.0264181 -0.00205121 1e-05
0.0265643 -0.0020742 1e-05
0.0267105 -0.00209736 1e-05
0.026857 -0.00212075 1e-05
0.0270044 -0.00214448 1e-05
0.0271518 -0.00216841 1e-05
[...]
POINT_DATA 10941
 FIELD attributes 1
U 3 10941 float
0.15447 	-0.00237732 	0 0.159766 	-0.00727274 	0 0.163907 	-0.0123511 	0 0.167014 	-0.0177353 	0 0.168985 	-0.0217798 	0 0.170009 	-0.0217154 	0 0.170993 	-0.0213373 	0 0.172083 	-0.0209776 	0 0.175655 	-0.0198308 	0 0.179742 	-0.0186772 	0 0.184547 	-0.0174465 	0 0.186517 	-0.0169812 	0 0.188173 	-0.0165887 	0 0.189658 	-0.0162402 	0 0.191177 	-0.0158973 	0 0.193286 	-0.0154383 	0 0.196172 	-0.0148243 	0 0.199148 	-0.0142288 	0 0.202209 	-0.013651 	0 0.204757 	-0.0131332 	0 0.205037 	-0.0127994 	0 0.211366 	-0.0120508 	0 0.216148 	-0.01136 	0 0.220459 	-0.0107047 	0 0.221412 	-0.0102367 	0 0.221031 	-0.00984962 	0 0.227862 	-0.00927524 	0 0.234885 	-0.0087196 	0 0.237842 	-0.00828461 	0 0.236585 	-0.00797763 	0 0.235387 	-0.00767587 	0 0.242509 	-0.00719607 	0 0.24967 	-0.00673219 	0 0.251414 	-0.00646275 	0 0.249887 	-0.00623694 	0 0.247871 	-0.00602026 	0 0.255184 	-0.00562548 	0 0.259927 	-0.00531724 	0 0.261461 	-0.00511085 	0 0.261291 	-0.0049286 	0 0.258513 	-0.00478063 	0 0.265981 	-0.00445444 	0 0.268676 	-0.00425824 	0 0.270014 	-0.00410073 	0 0.271024 	-0.00394945 	0 0.267555 	-0.00385418 	0 0.275 	-0.00358559 	0 0.27613 	-0.00346452 	0 0.277297 	-0.00334453 	0 0.278499 	-0.00322559 	0 0.275254 	-0.00316141 	0 0.281502 	-0.00296246 	0 0.282498 	-0.00287169 	0 0.28352 	-0.00278159 	0 0.284569 	-0.00269216 	0 0.281857 	-0.00264928 	0 0.287106 	-0.00250467 	0 0.287996 	-0.00243999 	0 0.288905 	-0.00237571 	0 0.289832 	-0.00231185 	0 0.287606 	-0.00228827 	0 0.292016 	-0.00219022 	0 0.292831 	-0.00215124 	0 0.293657 	-0.00211249 	0 0.294495 	-0.00207397 	0 0.292738 	-0.00207101 	0 0.296431 	-0.00201964 	0 0.297207 	-0.00201142 	0 0.297987 	-0.00200327 	0 0.298769 	-0.00199517 	0 0.297496 	-0.002019 	0 0.300566 	-0.00202649 	0 0.301354 	-0.00206442 	0 0.302134 	-0.0021022 	0 0.302906 	-0.00213984 	0 0.302193 	-0.00220568 	0 0.304701 	-0.00231209 	0 0.305576 	-0.00243873 	0 0.306422 	-0.00256483 	0 0.30724 	-0.0026904 	0 0.307257 	-0.00283609 	0 0.309188 	-0.00311025 	0 0.31025 	-0.00339209 	0 0.311255 	-0.00367264 	0 0.312204 	-0.00395191 	0 0.312495 	-0.00404261 	0 0.312663 	-0.00409904 	0 0.312829 	-0.0041554 	0 0.312991 	-0.00421167 	0 0.313151 	-0.00426787 	0 0.312094 	-0.00432413 	0 0.314827 	-0.00542499 	0 0.31611 	-0.00654667 	0 0.317136 	-0.00765068 	0 0.31791 	-0.00873735 	0 0.307285 	-0.00977015 	0 0.319908 	-0.0128532 	6.41313e-23 0.320678 	-0.0158668 	1.57413e-22 0.320798 	-0.0188332 	2.48265e-22 0.320274 	-0.0217525 	3.36701e-22 0.281597 	-0.0216039 	4.23066e-22 0.323242 	-0.0311228 	1.29689e-21 0.324513 	-0.0341316 	1.46869e-21 0.323074 	-0.0367787 	1.60781e-21 0.316963 	-0.0358545 	1.30741e-21 0.306121 	-0.0310575 	5.20752e-22 0.311262 	-0.0342951 	3.3576e-22 0.31599 	-0.0374794 	1.51054e-22 0.313192 	-0.0370527 	5.23986e-23 0.306348 	-0.0335193 	1.38752e-23 0.299791 	-0.0300003 	-2.4263e-23 0.303361 	-0.0312696 	5.89804e-26 0.306726 	-0.032443 	2.45473e-23 0.308225 	-0.0320206 	5.62562e-23 0.306129 	-0.0303323 	7.46116e-23 0.30268 	-0.0281367 	8.76383e-23 0.305435 	-0.0286556 	8.3328e-24 0.30719 	-0.0283775 	-2.26449e-23 0.308701 	-0.0278685 	-3.92792e-23 0.310278 	-0.0273687 	-5.60583e-23 0.309103 	-0.0260457 	-4.90836e-23 0.310675 	-0.0259859 	6.22004e-24 0.311788 	-0.0255485 	1.63118e-23 0.312942 	-0.0251165 	2.65759e-23 0.314138 	-0.0246896 	3.70107e-23 0.315571 	-0.0242008 	4.93034e-23 0.315624 	-0.0241872 	5.02721e-23 0.315678 	-0.0241735 	5.12406e-23 0.315732 	-0.0241598 	5.22089e-23 0.315786 	-0.0241462 	5.31769e-23 0.315831 	-0.0241167 	5.27081e-23 0.317129 	-0.0237911 	3.12093e-23 0.318406 	-0.0234462 	1.03311e-23 0.31971 	-0.0231047 	-1.05054e-23 0.321041 	-0.0227667 	-3.13007e-23 0.322096 	-0.0220848 	-4.41548e-23 0.324414 	-0.0223275 	-4.12734e-23 0.325556 	-0.0220732 	-3.15539e-23 0.326716 	-0.021821 	-2.18039e-23 0.327893 	-0.021571 	-1.20236e-23 0.328497 	-0.0208209 	1.43728e-24 0.331104 	-0.0212295 	-3.66508e-24 0.332418 	-0.0211484 	-8.7e-24 0.33346 	-0.0209622 	-1.37045e-23 0.334277 	-0.0206111 	-1.48689e-23 0.334768 	-0.020021 	-1.04576e-23 0.337053 	-0.02035 	-9.64787e-24 0.338914 	-0.0205327 	-1.06649e-23 0.339864 	-0.0203974 	-1.56682e-23 0.340377 	-0.0199937 	-1.58477e-23 0.340812 	-0.0195336 	-1.49759e-23 0.342843 	-0.0198151 	-1.16634e-25 0.344867 	-0.0200956 	1.47452e-23 0.345824 	-0.0200063 	1.81347e-23 0.346203 	-0.0196442 	1.24421e-23 0.346598 	-0.0192841 	6.73506e-24 0.348423 	-0.019537 	-1.03528e-24 0.350241 	-0.019789 	-8.80005e-24 0.351398 	-0.0197878 	-5.23625e-24 0.351749 	-0.0195041 	8.47353e-24 0.35211 	-0.0192218 	2.21674e-23 0.353762 	-0.0194566 	9.824e-24 0.355409 	-0.0196906 	-2.51058e-24 0.356625 	-0.0197334 	-2.25774e-24 0.357011 	-0.0195313 	1.0147e-23 0.357344 	-0.0193123 	2.34271e-23 0.358851 	-0.0195368 	3.18074e-23 0.360207 	-0.0197009 	3.48736e-23 0.3613 	-0.0197565 	2.83306e-23 0.362003 	-0.0197027 	1.94779e-23 0.362309 	-0.019537 	8.25527e-24 0.36369 	-0.0197573 	2.6238e-24 0.364788 	-0.0198702 	-2.8765e-25 0.36578 	-0.0199429 	-2.18095e-24 0.36673 	-0.0200042 	-3.77684e-24 0.36701 	-0.0198846 	-6.64329e-25 0.368243 	-0.0200921 	-2.58517e-24 0.369148 	-0.0201822 	-2.78509e-24 0.370052 	-0.020272 	-2.98454e-24 0.370954 	-0.0203618 	-3.18351e-24 0.371452 	-0.0203463 	-3.1109e-24 0.372461 	-0.0205148 	-1.08562e-23 0.373286 	-0.0206216 	-1.29245e-23 0.374109 	-0.0207283 	-1.49895e-23 0.374931 	-0.0208346 	-1.70515e-23 0.375643 	-0.0209137 	-1.67416e-23 0.375999 	-0.0209799 	-1.24738e-23 0.376305 	-0.0210301 	-7.19949e-24 0.376611 	-0.0210803 	-1.92501e-24 0.376916 	-0.0211304 	3.34967e-24 0.377215 	-0.0211796 	8.52367e-24 0.377694 	-0.021256 	1.56183e-23 0.378172 	-0.0213323 	2.27119e-23 0.378649 	-0.0214085 	2.98043e-23 0.379125 	-0.0214846 	3.68956e-23 0.379532 	-0.0215321 	4.84952e-23 0.380407 	-0.0217192 	5.15846e-23 0.381142 	-0.0218641 	4.9243e-23 0.381876 	-0.0220087 	4.69146e-23 0.382606 	-0.0221529 	4.45995e-23 0.383155 	-0.0222271 	3.26513e-23 0.384175 	-0.0224911 	-4.57234e-24 0.384844 	-0.0226522 	-2.8221e-23 0.385511 	-0.0228129 	-5.18708e-23 0.386175 	-0.0229732 	-7.55216e-23 0.386547 	-0.0230289 	-5.26473e-23 0.387655 	-0.0233478 	-2.02513e-22 0.388304 	-0.023537 	-2.12685e-22 0.388908 	-0.0237136 	-2.09796e-22 0.389417 	-0.0238591 	-1.58574e-22 0.38971 	-0.0239322 	6.22207e-24 0.390731 	-0.0242542 	3.98952e-23 0.391527 	-0.0245153 	7.09622e-23 0.39207 	-0.0247075 	9.90651e-23 0.392406 	-0.0248351 	1.03213e-22 0.392645 	-0.0249324 	9.61775e-23 0.393583 	-0.025259 	1.92586e-22 0.394514 	-0.0255844 	2.88695e-22 0.394975 	-0.0257852 	2.78242e-22 0.395163 	-0.0259057 	1.47457e-22 0.395349 	-0.0260259 	1.66202e-23 0.396208 	-0.026358 	-9.00745e-24 0.397061 	-0.0266892 	-3.4647e-23 0.397553 	-0.0269254 	-5.73598e-23 0.39769 	-0.0270676 	-7.70846e-23 0.397824 	-0.0272095 	-9.68227e-23 0.398607 	-0.0275477 	-9.59707e-23 0.399383 	-0.0278851 	-9.5131e-23 0.399899 	-0.0281548 	-7.96422e-23 0.399985 	-0.0283177 	-5.37951e-23 0.400067 	-0.0284802 	-2.79409e-23 0.400776 	-0.0288252 	1.73307e-23 0.401384 	-0.0291461 	4.85488e-23 0.401807 	-0.0294219 	5.30632e-23 0.402045 	-0.0296535 	4.12034e-23 0.402076 	-0.0298355 	1.09092e-23 0.402712 	-0.0301875 	-6.43543e-23 0.403127 	-0.0304887 	-6.93437e-23 0.403483 	-0.0307764 	-5.65518e-23 0.403833 	-0.0310635 	-4.36906e-23 0.403848 	-0.0312723 	1.78153e-23 0.404342 	-0.0316157 	-3.2253e-23 0.404637 	-0.0319156 	-2.25296e-23 0.404926 	-0.0322148 	-1.27185e-23 0.405209 	-0.0325133 	-2.81976e-24 0.405381 	-0.032787 	3.06775e-23 0.405559 	-0.0329522 	5.5106e-23 0.405672 	-0.033104 	6.42106e-23 0.405784 	-0.0332557 	7.3301e-23 0.405894 	-0.0334072 	8.23773e-23 0.405998 	-0.0335515 	9.10181e-23 0.40614 	-0.0337139 	9.8719e-23 0.40628 	-0.0338762 	1.06395e-22 0.406419 	-0.0340383 	1.14046e-22 0.406556 	-0.0342002 	1.21673e-22 0.406628 	-0.0343453 	1.26498e-22 0.406954 	-0.034699 	1.49847e-22 0.407172 	-0.0350245 	1.48883e-22 0.407384 	-0.0353494 	1.47903e-22 0.40759 	-0.0356736 	1.46906e-22 0.4076 	-0.0359508 	9.46245e-23 0.408063 	-0.0363646 	2.33763e-22 0.408216 	-0.0366998 	2.04463e-22 0.408364 	-0.0370344 	1.75302e-22 0.408446 	-0.0373544 	1.17418e-22 0.408322 	-0.0376279 	-3.55312e-23 0.408741 	-0.0380532 	-1.67503e-22 0.409011 	-0.0384421 	-2.4474e-22 0.409095 	-0.0387856 	-2.53244e-22 0.408978 	-0.0390859 	-1.44794e-22 0.408792 	-0.0393722 	1.31238e-24 0.409137 	-0.0398008 	-6.16179e-23 0.409475 	-0.0402286 	-1.24521e-22 0.409496 	-0.040583 	-1.08549e-22 0.409254 	-0.0408812 	-3.34545e-24 0.409007 	-0.041179 	1.01985e-22 0.409279 	-0.0416106 	1.6255e-22 0.409544 	-0.0420414 	2.2316e-22 0.409577 	-0.042427 	1.97507e-22 0.409274 	-0.0427356 	1.02104e-22 0.408964 	-0.0430439 	6.6368e-24 0.409164 	-0.0434779 	-7.59438e-23 0.409241 	-0.0438897 	-1.14638e-22 0.409175 	-0.0442753 	-1.01258e-22 0.409033 	-0.0446442 	-6.91054e-23 0.408662 	-0.0449618 	2.34213e-23 0.408772 	-0.0453945 	-6.34115e-23 0.408643 	-0.0457852 	-9.73761e-23 0.408506 	-0.046175 	-1.31254e-22 0.408362 	-0.0465642 	-1.65045e-22 0.408098 	-0.0469277 	-1.67927e-22 0.408083 	-0.0471218 	-2.03869e-22 0.407993 	-0.0473031 	-2.30551e-22 0.407902 	-0.0474844 	-2.57231e-22 0.407808 	-0.0476654 	-2.83911e-22 0.407718 	-0.0478386 	-3.09445e-22 0.407639 	-0.0480554 	-3.50966e-22 0.407557 	-0.048272 	-3.92536e-22 0.407474 	-0.0484884 	-4.34154e-22 0.407389 	-0.0487046 	-4.75822e-22 0.407217 	-0.0489034 	-4.33592e-22 0.407144 	-0.0493372 	-6.04371e-22 0.406939 	-0.0497389 	-6.0705e-22 0.406728 	-0.0501399 	-6.10204e-22 0.406509 	-0.0505403 	-6.13835e-22 0.406038 	-0.0508928 	-2.76992e-22 0.406047 	-0.0513638 	-4.26335e-22 0.405858 	-0.0517874 	-4.71429e-22 0.405579 	-0.0521901 	-4.71161e-22 0.405135 	-0.0525628 	-3.25887e-22 0.404587 	-0.0529174 	-9.14867e-23 0.404522 	-0.0533854 	-1.2597e-22 0.404449 	-0.0538528 	-1.60484e-22 0.404087 	-0.0542567 	-1.52694e-22 0.40348 	-0.0546141 	-7.06637e-23 0.402865 	-0.0549713 	1.15403e-23 0.402725 	-0.0554357 	3.60688e-23 0.402577 	-0.0558993 	6.06359e-23 0.402171 	-0.0563189 	7.60107e-23 0.401551 	-0.0566901 	9.23469e-23 0.400869 	-0.0570488 	1.08997e-22 0.400656 	-0.0575089 	3.00473e-23 0.400252 	-0.0579376 	-3.78317e-24 0.399772 	-0.0583543 	-2.09504e-23 0.399284 	-0.0587704 	-3.79765e-23 0.398601 	-0.0591441 	1.2803e-23 0.398369 	-0.0594435 	5.64246e-23 0.398006 	-0.0597217 	2.5156e-23 0.397638 	-0.0599996 	-6.21642e-24 0.397267 	-0.0602772 	-3.76928e-23 0.396913 	-0.0605384 	-6.74458e-23 0.396749 	-0.0606789 	-8.73752e-23 0.396584 	-0.0608194 	-1.07342e-22 0.396418 	-0.0609598 	-1.27347e-22 0.396251 	-0.0611001 	-1.47389e-22 0.396021 	-0.0612285 	-9.27647e-23 0.395576 	-0.0616663 	-6.16456e-23 0.395035 	-0.0620814 	-5.38006e-23 0.394486 	-0.0624959 	-4.57908e-23 0.39393 	-0.0629098 	-3.76157e-23 0.393112 	-0.0632769 	-1.07284e-22 0.392757 	-0.063747 	-1.30077e-22 0.392254 	-0.0641826 	-1.3672e-22 0.391636 	-0.0645914 	-1.3095e-22 0.390816 	-0.0649644 	-1.04871e-22 0.389926 	-0.0653267 	-7.25273e-23 0.389496 	-0.0657874 	3.52653e-23 0.389058 	-0.0662474 	1.43084e-22 0.388372 	-0.0666584 	1.7122e-22 0.387423 	-0.0670151 	1.21719e-22 0.386465 	-0.067372 	7.2141e-23 0.38596 	-0.0678224 	1.0372e-22 0.385349 	-0.0682549 	1.18893e-22 0.384575 	-0.06866 	1.08613e-22 0.383757 	-0.0690561 	9.4733e-23 0.38273 	-0.0694064 	6.06725e-23 0.382194 	-0.0697859 	4.3383e-23 0.381461 	-0.0701321 	3.93011e-23 0.380722 	-0.0704777 	3.52531e-23 0.379976 	-0.0708229 	3.12392e-23 0.379274 	-0.0711434 	2.75374e-23 0.379166 	-0.0711986 	2.70747e-23 0.379058 	-0.0712538 	2.66131e-23 0.37895 	-0.0713089 	2.61524e-23 0.378842 	-0.0713641 	2.56928e-23 0.378704 	-0.0714134 	2.34646e-23 0.377928 	-0.0718163 	1.01857e-23 0.377102 	-0.0722083 	3.63129e-25 0.376268 	-0.0725998 	-9.46662e-24 0.375424 	-0.0729907 	-1.93036e-23 0.37433 	-0.0733337 	-2.11035e-23 0.373672 	-0.0737716 	2.97126e-23 0.372882 	-0.0741783 	5.14297e-23 0.371978 	-0.0745581 	4.80251e-23 0.370859 	-0.074896 	4.90897e-24 0.369683 	-0.0752256 	-4.66171e-23 0.368951 	-0.0756484 	-6.83944e-23 0.368209 	-0.0760705 	-9.0111e-23 0.367244 	-0.0764483 	-9.02089e-23 0.366012 	-0.0767653 	-6.18583e-23 0.364767 	-0.0770828 	-3.33964e-23 0.363961 	-0.0774899 	-6.3883e-23 0.362984 	-0.0778644 	-6.7113e-23 0.36191 	-0.078221 	-5.54962e-23 0.360825 	-0.0785768 	-4.3785e-23 0.359586 	-0.0788995 	-8.21413e-26 0.359218 	-0.0790608 	2.27394e-23 0.35875 	-0.0792023 	2.31237e-23 0.358279 	-0.0793438 	2.34893e-23 0.357807 	-0.0794851 	2.38361e-23 0.357348 	-0.0796219 	2.41537e-23 0.356727 	-0.0798277 	3.12018e-23 0.356103 	-0.0800332 	3.82413e-23 0.355476 	-0.0802386 	4.52722e-23 0.354845 	-0.0804438 	5.22945e-23 0.354079 	-0.0806183 	6.30485e-23 0.353159 	-0.0810016 	-7.88452e-23 0.352046 	-0.0813353 	-1.65551e-22 0.350923 	-0.0816684 	-2.52386e-22 0.349674 	-0.0819736 	-2.86077e-22 0.348285 	-0.0822495 	-2.61963e-22 0.347322 	-0.0826213 	-5.26457e-22 0.346348 	-0.0829923 	-7.90847e-22 0.345135 	-0.0833055 	-8.30581e-22 0.343692 	-0.0835637 	-6.52089e-22 0.342233 	-0.0838225 	-4.73079e-22 0.341197 	-0.0841743 	-6.30039e-22 0.340043 	-0.0845 	-6.03467e-22 0.338746 	-0.0847933 	-3.47141e-22 0.337438 	-0.0850858 	-9.03869e-23 0.335929 	-0.0853317 	3.26882e-22 0.335361 	-0.0855013 	6.44774e-22 0.334674 	-0.0856426 	6.02109e-22 0.333979 	-0.0857825 	5.44344e-22 0.33328 	-0.0859222 	4.86301e-22 0.332605 	-0.0860567 	4.30113e-22 0.331977 	-0.0861962 	4.68485e-22 0.331346 	-0.0863355 	5.06934e-22 0.330713 	-0.0864747 	5.4546e-22 0.330078 	-0.0866138 	5.84065e-22 0.329328 	-0.0867207 	4.2372e-22 0.328173 	-0.0870313 	-1.94811e-22 0.326846 	-0.0872947 	-4.34174e-22 0.32551 	-0.0875575 	-6.74877e-22 0.32405 	-0.0877867 	-4.69729e-22 0.32246 	-0.0879827 	1.90895e-22 0.321269 	-0.0882808 	7.80857e-22 0.320067 	-0.0885781 	1.37044e-21 0.31865 	-0.0888151 	1.29857e-21 0.31701 	-0.0889894 	5.60119e-22 0.31535 	-0.0891639 	-1.81708e-22 0.314087 	-0.0894386 	-2.3958e-22 0.312678 	-0.0896718 	-1.24124e-22 0.311169 	-0.0898776 	1.04535e-22 0.309647 	-0.0900826 	3.33495e-22 0.308005 	-0.0902598 	5.17179e-22 0.307649 	-0.0903269 	8.21189e-22 0.307239 	-0.0903779 	8.3082e-22 0.306821 	-0.0904268 	8.01916e-22 0.306402 	-0.0904756 	7.72917e-22 0.305991 	-0.0905234 	7.44359e-22 0.304915 	-0.0906664 	8.04761e-22 0.303834 	-0.090809 	8.65158e-22 0.302746 	-0.0909512 	9.2555e-22 0.301644 	-0.0910899 	9.8272e-22 0.300392 	-0.0911749 	9.84824e-22 0.299053 	-0.0914046 	1.47463e-21 0.297589 	-0.0915966 	1.62905e-21 0.29605 	-0.0917669 	1.59346e-21 0.294328 	-0.0918696 	1.03293e-21 0.292555 	-0.0919609 	3.81563e-22 0.291145 	-0.0921645 	-5.68452e-23 0.289722 	-0.0923673 	-4.94533e-22 0.288094 	-0.0924928 	-3.40408e-22 0.286338 	-0.0925796 	2.02001e-23 0.284496 	-0.0926461 	4.90579e-22 0.283358 	-0.0927825 	-1.6898e-22 0.282083 	-0.0928668 	-2.45538e-22 0.280778 	-0.0929411 	-2.13345e-22 0.279465 	-0.0930149 	-1.79898e-22 0.278211 	-0.0930844 	-1.46962e-22 0.277822 	-0.0931107 	-1.32713e-22 0.277432 	-0.0931369 	-1.18337e-22 0.277041 	-0.0931631 	-1.03832e-22 0.276646 	-0.0931869 	-1.15032e-22 0.276213 	-0.0931914 	-3.43411e-22 0.274654 	-0.0933066 	-3.618e-22 0.273006 	-0.0933914 	-3.67526e-22 0.271347 	-0.0934755 	-3.72697e-22 0.26961 	-0.0935235 	-3.26811e-22 0.267747 	-0.0935151 	-2.00274e-22 0.2662 	-0.093634 	1.79302e-21 0.264638 	-0.0937518 	3.78558e-21 0.262912 	-0.0937945 	3.93087e-21 0.261007 	-0.0937598 	2.20827e-21 0.259074 	-0.093724 	4.74556e-22 0.257455 	-0.0938147 	-3.09196e-22 0.255702 	-0.0938364 	-3.18532e-22 0.253892 	-0.0938325 	-4.75336e-23 0.252067 	-0.0938275 	2.26203e-22 0.250199 	-0.0938162 	5.49687e-22 0.250134 	-0.0938185 	5.44024e-22 0.250065 	-0.0938182 	5.44323e-22 0.249995 	-0.0938171 	5.46513e-22 0.249924 	-0.0938159 	5.48704e-22 0.249854 	-0.0938147 	5.50893e-22 0.248181 	-0.0938009 	8.92365e-22 0.246497 	-0.0937861 	1.23705e-21 0.244799 	-0.0937705 	1.585e-21 0.24307 	-0.0937371 	1.59267e-21 0.241218 	-0.0936181 	-1.22733e-22 0.239546 	-0.093639 	-2.35416e-21 0.23786 	-0.0936587 	-4.58322e-21 0.236012 	-0.0935906 	-4.83155e-21 0.234047 	-0.09344 	-2.89283e-21 0.232051 	-0.0932869 	-9.36171e-22 0.230308 	-0.093278 	-6.59401e-22 0.228482 	-0.0932082 	-4.58772e-22 0.226589 	-0.0930904 	-3.17415e-22 0.224681 	-0.0929713 	-1.75126e-22 0.222694 	-0.0928283 	-2.98556e-24 0.222449 	-0.0928232 	7.06069e-24 0.222193 	-0.0928078 	2.2177e-23 0.221933 	-0.0927882 	3.93516e-23 0.221672 	-0.0927685 	5.65404e-23 0.221413 	-0.0927491 	7.35907e-23 0.219831 	-0.0926383 	3.03988e-23 0.218239 	-0.0925266 	-1.30411e-23 0.216636 	-0.092414 	-5.67336e-23 0.215045 	-0.0922822 	-4.31066e-23 0.21351 	-0.0920804 	1.83387e-22 0.211639 	-0.0919812 	2.55472e-21 0.209752 	-0.0918804 	4.92334e-21 0.207876 	-0.0916974 	5.05668e-21 0.206065 	-0.0914376 	2.78514e-21 0.204221 	-0.0911736 	4.8828e-22 0.202285 	-0.0910439 	-9.17048e-22 0.200399 	-0.0908536 	-1.37716e-21 0.198546 	-0.0906199 	-1.16424e-21 0.196678 	-0.0903848 	-9.49186e-22 0.19477 	-0.0901333 	-6.04817e-22 0.194616 	-0.090121 	-6.98397e-22 0.194468 	-0.0901036 	-6.94442e-22 0.194322 	-0.0900835 	-6.41065e-22 0.194177 	-0.0900633 	-5.87671e-22 0.194032 	-0.0900433 	-5.34528e-22 0.192215 	-0.0898023 	8.29497e-23 0.190384 	-0.08956 	7.02984e-22 0.188539 	-0.0893163 	1.32563e-21 0.186772 	-0.0890423 	1.34038e-21 0.185115 	-0.0887179 	3.94602e-22 0.183033 	-0.088467 	3.42299e-22 0.180933 	-0.0882139 	2.90494e-22 0.178995 	-0.0879007 	2.43403e-22 0.177159 	-0.0875247 	2.31925e-22 0.175282 	-0.0871406 	2.21312e-22 0.174089 	-0.0869839 	4.89087e-22 0.172962 	-0.086803 	5.88794e-22 0.171896 	-0.0865999 	5.33909e-22 0.170825 	-0.0863962 	4.78747e-22 0.169789 	-0.0861994 	4.25344e-22 0.168907 	-0.086036 	3.3353e-22 0.16802 	-0.0858723 	2.41393e-22 0.167131 	-0.0857082 	1.48929e-22 0.166286 	-0.0855247 	1.12226e-22 0.165479 	-0.085321 	1.30712e-22 0.163473 	-0.0849707 	-1.34337e-21 0.161457 	-0.084609 	-2.60478e-21 0.159487 	-0.0842004 	-3.00841e-21 0.157664 	-0.0837239 	-2.51646e-21 0.155798 	-0.0832379 	-2.02006e-21 0.154187 	-0.0829408 	-3.37317e-21 0.152631 	-0.0826148 	-4.25189e-21 0.151157 	-0.0822499 	-4.48226e-21 0.149674 	-0.0818837 	-4.71263e-21 0.148254 	-0.0815342 	-4.93178e-21 0.1478 	-0.0814247 	-5.05533e-21 0.147344 	-0.081315 	-5.17896e-21 0.146888 	-0.0812052 	-5.30266e-21 0.146463 	-0.0810841 	-5.02561e-21 0.146056 	-0.0809551 	-4.4908e-21 0.144078 	-0.0804966 	-2.7923e-21 0.142113 	-0.0800064 	-1.31511e-21 0.140134 	-0.0795111 	1.39921e-22 0.13836 	-0.0789356 	3.6203e-22 0.13654 	-0.0783478 	5.90431e-22 0.134928 	-0.0779606 	3.41923e-21 0.13336 	-0.0775516 	5.04079e-21 0.131899 	-0.0770989 	4.12465e-21 0.130429 	-0.0766449 	3.20496e-21 0.12902 	-0.0762111 	2.32553e-21 0.128599 	-0.0760836 	2.11964e-21 0.128176 	-0.0759559 	1.91351e-21 0.127753 	-0.0758282 	1.70713e-21 0.127367 	-0.0756887 	1.64004e-21 0.126993 	-0.0755439 	1.62916e-21 0.125063 	-0.0749763 	4.06602e-22 0.123141 	-0.0743856 	-6.37555e-22 0.121236 	-0.0737782 	-1.46635e-21 0.119521 	-0.0731037 	-9.60595e-22 0.117762 	-0.0724142 	-4.47544e-22 0.116508 	-0.072037 	7.82376e-22 0.115279 	-0.0716484 	1.49689e-21 0.114156 	-0.0712231 	4.06526e-22 0.113027 	-0.0707969 	-6.86841e-22 0.111934 	-0.0703852 	-1.7438e-21 0.111247 	-0.0701298 	-2.48425e-21 0.110558 	-0.069874 	-3.22603e-21 0.109866 	-0.0696179 	-3.96918e-21 0.109247 	-0.069341 	-3.07476e-21 0.108639 	-0.0690571 	-1.77766e-21 0.10678 	-0.0683833 	-3.34337e-21 0.104905 	-0.0677065 	-4.90559e-21 0.103149 	-0.0669834 	-5.01913e-21 0.101514 	-0.0662135 	-3.61676e-21 0.0998356 	-0.0654263 	-2.1908e-21 0.0991948 	-0.0651907 	-2.6063e-21 0.0985618 	-0.064952 	-2.97345e-21 0.0979963 	-0.0646937 	-2.99918e-21 0.0974294 	-0.0644353 	-3.02506e-21 0.0968714 	-0.0641811 	-3.05065e-21 0.0957336 	-0.0636676 	-3.96068e-21 0.0945903 	-0.0631531 	-4.8737e-21 0.0934415 	-0.0626375 	-5.78981e-21 0.0924317 	-0.0620856 	-4.41911e-21 0.0914256 	-0.0615224 	-2.74715e-21 0.0897581 	-0.0607891 	-3.05565e-21 0.0880965 	-0.0600487 	-3.23951e-21 0.0866318 	-0.0592546 	-2.0192e-21 0.0851602 	-0.0584591 	-7.98584e-22 0.0