# vtk DataFile Version 2.0
track0
ASCII
DATASET POLYDATA
POINTS 10989 double
-0.0205 0.001 1e-05
-0.0202034 0.000995436 1e-05
-0.0199071 0.000981944 1e-05
-0.0196114 0.000959648 1e-05
-0.0193164 0.000928315 1e-05
-0.0190172 0.000889729 1e-05
-0.0187132 0.000850887 1e-05
-0.0184092 0.000812921 1e-05
-0.0181051 0.000775812 1e-05
-0.0178006 0.000741405 1e-05
-0.0174976 0.000709872 1e-05
-0.0173934 0.00070001 1e-05
-0.0172893 0.000690507 1e-05
-0.0171851 0.000681301 1e-05
-0.0170809 0.000672353 1e-05
-0.0169395 0.000660566 1e-05
-0.0167593 0.000646127 1e-05
-0.0165791 0.000632461 1e-05
-0.0163988 0.000619537 1e-05
-0.0162185 0.000607321 1e-05
-0.0160387 0.000595745 1e-05
-0.0157586 0.000578194 1e-05
-0.0154784 0.000562154 1e-05
-0.0151981 0.00054736 1e-05
-0.0149177 0.000533682 1e-05
-0.0146381 0.000520678 1e-05
-0.0143692 0.00050862 1e-05
-0.0141002 0.000497599 1e-05
-0.0138312 0.00048754 1e-05
-0.0135621 0.000478092 1e-05
-0.0132934 0.000468952 1e-05
-0.0130353 0.000460452 1e-05
-0.0127771 0.000452711 1e-05
-0.0125188 0.000445663 1e-05
-0.0122606 0.000438939 1e-05
-0.0120025 0.000432412 1e-05
-0.0117547 0.000426306 1e-05
-0.0115068 0.000420755 1e-05
-0.0112589 0.000415591 1e-05
-0.011011 0.000410651 1e-05
-0.0107632 0.000405885 1e-05
-0.0105252 0.00040139 1e-05
-0.0102873 0.00039731 1e-05
-0.0100493 0.000393436 1e-05
-0.0098113 0.000389718 1e-05
-0.00957337 0.000386149 1e-05
-0.00934491 0.000382754 1e-05
-0.00911645 0.000379663 1e-05
-0.00888798 0.000376683 1e-05
-0.00865952 0.000373811 1e-05
-0.00843108 0.000371046 1e-05
-0.00821175 0.00036841 1e-05
-0.00799242 0.000365976 1e-05
-0.00777309 0.000363617 1e-05
-0.00755375 0.000361332 1e-05
-0.00733443 0.000359122 1e-05
-0.00712387 0.000357009 1e-05
-0.0069133 0.000355028 1e-05
-0.00670273 0.000353094 1e-05
-0.00649216 0.000351209 1e-05
-0.0062816 0.00034937 1e-05
-0.00607944 0.000347606 1e-05
-0.00587729 0.000345921 1e-05
-0.00567514 0.000344259 1e-05
-0.00547298 0.000342622 1e-05
-0.00527083 0.000341008 1e-05
-0.00507675 0.000339448 1e-05
-0.00488267 0.000337922 1e-05
-0.0046886 0.000336394 1e-05
-0.00449452 0.000334865 1e-05
-0.00430044 0.000333334 1e-05
-0.00411412 0.000331839 1e-05
-0.0039278 0.000330328 1e-05
-0.00374147 0.000328781 1e-05
-0.00355515 0.000327198 1e-05
-0.00336883 0.00032558 1e-05
-0.00321823 0.000324232 1e-05
-0.00306763 0.000322822 1e-05
-0.00291703 0.000321343 1e-05
-0.00276644 0.000319796 1e-05
-0.00267738 0.000318841 1e-05
-0.00263679 0.000318394 1e-05
-0.0025962 0.000317944 1e-05
-0.00255561 0.000317488 1e-05
-0.00251502 0.000317028 1e-05
-0.00247443 0.000316563 1e-05
-0.0023027 0.000314566 1e-05
-0.00213097 0.000312379 1e-05
-0.00195924 0.000309989 1e-05
-0.00178752 0.000307399 1e-05
-0.00161577 0.000304612 1e-05
-0.0014509 0.000301677 1e-05
-0.00128604 0.00029828 1e-05
-0.00112119 0.000294214 1e-05
-0.000956364 0.000289496 1e-05
-0.000791418 0.000284135 1e-05
-0.000633135 0.000278037 1e-05
-0.000474906 0.000270645 1e-05
-0.000316772 0.000261461 1e-05
-0.000158749 0.00025052 1e-05
0 0.00023778 1e-05
0.000105677 0.000227925 1e-05
0.000211084 0.000215501 1e-05
0.000316278 0.000201395 1e-05
0.000421293 0.000186005 1e-05
0.000528387 0.000170697 1e-05
0.000634886 0.000156176 1e-05
0.000741215 0.000140458 1e-05
0.000847366 0.000123578 1e-05
0.000953479 0.000106458 1e-05
0.00106088 8.96604e-05 1e-05
0.00116821 7.35357e-05 1e-05
0.00127547 5.69595e-05 1e-05
0.00138273 4.04395e-05 1e-05
0.00149002 2.40378e-05 1e-05
0.00159752 7.72553e-06 1e-05
0.00160781 6.18042e-06 1e-05
0.00161811 4.63407e-06 1e-05
0.00162841 3.08967e-06 1e-05
0.0016387 1.54722e-06 1e-05
0.00164904 0 1e-05
0.0017469 -1.46212e-05 1e-05
0.00184478 -2.90708e-05 1e-05
0.00194269 -4.33484e-05 1e-05
0.00204062 -5.74542e-05 1e-05
0.00213833 -7.13521e-05 1e-05
0.00224733 -8.61477e-05 1e-05
0.00235631 -0.000101122 1e-05
0.0024653 -0.000115967 1e-05
0.00257433 -0.000130596 1e-05
0.00268334 -0.000144754 1e-05
0.00279319 -0.000158413 1e-05
0.00290303 -0.000172163 1e-05
0.00301285 -0.000186002 1e-05
0.0031227 -0.000199668 1e-05
0.00323259 -0.000212909 1e-05
0.00334329 -0.000225818 1e-05
0.00345399 -0.000238786 1e-05
0.00356468 -0.000251777 1e-05
0.00367539 -0.000264646 1e-05
0.00378611 -0.0002773 1e-05
0.00389767 -0.000289742 1e-05
0.00400923 -0.000302235 1e-05
0.0041208 -0.000314657 1e-05
0.00423237 -0.000326998 1e-05
0.00434393 -0.000339256 1e-05
0.0044067 -0.000346067 1e-05
0.00446946 -0.000352887 1e-05
0.00453223 -0.000359693 1e-05
0.004595 -0.000366486 1e-05
0.00465824 -0.000373316 1e-05
0.00470781 -0.000378659 1e-05
0.00475738 -0.000383993 1e-05
0.00480695 -0.00038932 1e-05
0.00485653 -0.000394638 1e-05
0.00490609 -0.000399948 1e-05
0.0050194 -0.000412029 1e-05
0.0051327 -0.000424155 1e-05
0.005246 -0.000436271 1e-05
0.0053593 -0.000448379 1e-05
0.00547262 -0.000460479 1e-05
0.00558681 -0.000472566 1e-05
0.00570098 -0.000484789 1e-05
0.00581515 -0.000497055 1e-05
0.00592931 -0.000509342 1e-05
0.00604356 -0.000521614 1e-05
0.00615863 -0.000533909 1e-05
0.00627369 -0.000546346 1e-05
0.00638874 -0.000558924 1e-05
0.00650378 -0.000571542 1e-05
0.00661893 -0.00058415 1e-05
0.0067349 -0.000596826 1e-05
0.00685085 -0.000609652 1e-05
0.00696679 -0.000622626 1e-05
0.00708272 -0.000635693 1e-05
0.00719878 -0.000648791 1e-05
0.00731565 -0.000661996 1e-05
0.0074325 -0.000675359 1e-05
0.00754934 -0.00068886 1e-05
0.00766617 -0.000702469 1e-05
0.00778313 -0.000716191 1e-05
0.00790091 -0.000730057 1e-05
0.00801867 -0.000744086 1e-05
0.00813642 -0.000758243 1e-05
0.00825415 -0.000772528 1e-05
0.00837203 -0.000786959 1e-05
0.00840692 -0.000791264 1e-05
0.0084418 -0.000795582 1e-05
0.00847668 -0.000799914 1e-05
0.00851156 -0.000804258 1e-05
0.00854532 -0.000808474 1e-05
0.00862936 -0.000819 1e-05
0.00871339 -0.000829599 1e-05
0.00879741 -0.000840269 1e-05
0.00888142 -0.000851011 1e-05
0.00896551 -0.000861837 1e-05
0.00908513 -0.000877318 1e-05
0.00920472 -0.000892997 1e-05
0.00932429 -0.000908835 1e-05
0.00944384 -0.000924832 1e-05
0.0095636 -0.000941012 1e-05
0.00968415 -0.000957422 1e-05
0.00980467 -0.000974057 1e-05
0.00992516 -0.000990895 1e-05
0.0100456 -0.00100791 1e-05
0.0101663 -0.0010251 1e-05
0.0102878 -0.00104255 1e-05
0.0104093 -0.00106023 1e-05
0.0105307 -0.00107814 1e-05
0.0106521 -0.00109625 1e-05
0.0107738 -0.00111456 1e-05
0.0108962 -0.00113315 1e-05
0.0110186 -0.00115198 1e-05
0.011141 -0.00117103 1e-05
0.0112633 -0.0011903 1e-05
0.0113859 -0.00120983 1e-05
0.0115032 -0.00122867 1e-05
0.0116204 -0.00124773 1e-05
0.0117376 -0.00126699 1e-05
0.0118547 -0.00128646 1e-05
0.0119588 -0.00130394 1e-05
0.0119676 -0.00130543 1e-05
0.0119764 -0.00130693 1e-05
0.0119852 -0.00130842 1e-05
0.011994 -0.00130992 1e-05
0.0120028 -0.00131142 1e-05
0.0121272 -0.00133258 1e-05
0.0122515 -0.00135397 1e-05
0.0123757 -0.0013756 1e-05
0.0125 -0.00139746 1e-05
0.0126245 -0.00141963 1e-05
0.0127498 -0.00144215 1e-05
0.0128751 -0.00146495 1e-05
0.0130003 -0.001488 1e-05
0.0131255 -0.0015113 1e-05
0.0132511 -0.00153491 1e-05
0.0133774 -0.00155889 1e-05
0.0135036 -0.00158315 1e-05
0.0136298 -0.00160769 1e-05
0.0137559 -0.0016325 1e-05
0.0138825 -0.00165765 1e-05
0.0140098 -0.00168317 1e-05
0.014137 -0.00170899 1e-05
0.0142641 -0.00173509 1e-05
0.0143912 -0.00176147 1e-05
0.0145188 -0.00178824 1e-05
0.0145851 -0.00180229 1e-05
0.0146514 -0.00181643 1e-05
0.0147177 -0.00183064 1e-05
0.014784 -0.00184492 1e-05
0.0148465 -0.00185847 1e-05
0.0149092 -0.00187213 1e-05
0.0149719 -0.00188587 1e-05
0.0150346 -0.00189966 1e-05
0.0150973 -0.00191353 1e-05
0.0151601 -0.0019275 1e-05
0.0152893 -0.00195638 1e-05
0.0154185 -0.00198557 1e-05
0.0155476 -0.00201506 1e-05
0.0156767 -0.00204484 1e-05
0.0158063 -0.00207505 1e-05
0.0159366 -0.0021057 1e-05
0.0160668 -0.00213668 1e-05
0.0161969 -0.00216798 1e-05
0.0163269 -0.00219959 1e-05
0.0164576 -0.00223166 1e-05
0.0165889 -0.00226418 1e-05
0.0167201 -0.00229703 1e-05
0.0168512 -0.00233021 1e-05
0.0169822 -0.0023637 1e-05
0.0171139 -0.00239773 1e-05
0.0171727 -0.00241306 1e-05
0.0172315 -0.00242846 1e-05
0.0172902 -0.00244392 1e-05
0.017349 -0.00245944 1e-05
0.0174051 -0.00247434 1e-05
0.0174791 -0.00249409 1e-05
0.0175532 -0.00251394 1e-05
0.0176272 -0.00253389 1e-05
0.0177012 -0.00255395 1e-05
0.0177754 -0.00257418 1e-05
0.0179087 -0.00261071 1e-05
0.0180419 -0.0026476 1e-05
0.0181751 -0.00268482 1e-05
0.0183081 -0.00272238 1e-05
0.018442 -0.00276053 1e-05
0.0185763 -0.00279917 1e-05
0.0187106 -0.00283817 1e-05
0.0188447 -0.00287755 1e-05
0.0189788 -0.00291728 1e-05
0.0191137 -0.00295766 1e-05
0.0192448 -0.0029972 1e-05
0.0193757 -0.00303711 1e-05
0.0195065 -0.00307736 1e-05
0.0196372 -0.00311795 1e-05
0.0197561 -0.00315523 1e-05
0.0197631 -0.00315742 1e-05
0.01977 -0.00315961 1e-05
0.0197769 -0.0031618 1e-05
0.0197838 -0.00316399 1e-05
0.0197907 -0.00316618 1e-05
0.0199272 -0.00320942 1e-05
0.0200635 -0.00325303 1e-05
0.0201997 -0.003297 1e-05
0.0203358 -0.00334136 1e-05
0.020473 -0.00338647 1e-05
0.0206105 -0.00343211 1e-05
0.0207479 -0.00347814 1e-05
0.0208851 -0.00352459 1e-05
0.0210222 -0.00357143 1e-05
0.0211606 -0.0036191 1e-05
0.0212991 -0.00366729 1e-05
0.0214376 -0.0037159 1e-05
0.0215759 -0.00376492 1e-05
0.021714 -0.00381436 1e-05
0.0218535 -0.00386473 1e-05
0.0218759 -0.00387291 1e-05
0.0218983 -0.00388109 1e-05
0.0219207 -0.00388929 1e-05
0.0219431 -0.0038975 1e-05
0.0219652 -0.0039056 1e-05
0.0220825 -0.0039487 1e-05
0.0221997 -0.00399209 1e-05
0.0223168 -0.00403577 1e-05
0.0224338 -0.00407975 1e-05
0.0225517 -0.00412444 1e-05
0.0226925 -0.00417814 1e-05
0.0228331 -0.00423231 1e-05
0.0229735 -0.00428693 1e-05
0.0231137 -0.00434199 1e-05
0.0232555 -0.00439815 1e-05
0.0233973 -0.00445483 1e-05
0.023539 -0.00451199 1e-05
0.0236804 -0.00456961 1e-05
0.0238217 -0.0046277 1e-05
0.0239647 -0.00468703 1e-05
0.0239854 -0.00469574 1e-05
0.0240062 -0.00470445 1e-05
0.024027 -0.00471317 1e-05
0.0240477 -0.0047219 1e-05
0.0240682 -0.00473054 1e-05
0.0241905 -0.0047821 1e-05
0.0243125 -0.00483399 1e-05
0.0244345 -0.00488624 1e-05
0.0245563 -0.00493883 1e-05
[...]
POINT_DATA 10989
 FIELD attributes 1
U 3 10989 float
0.154469 	-0.00237715 	0 0.159768 	-0.00727526 	0 0.163909 	-0.0123562 	0 0.167016 	-0.0177427 	0 0.168987 	-0.0217885 	0 0.170013 	-0.0217282 	0 0.170999 	-0.0213536 	0 0.17209 	-0.0209973 	0 0.175674 	-0.0198535 	0 0.179768 	-0.0187048 	0 0.184586 	-0.0174799 	0 0.186549 	-0.0170189 	0 0.188202 	-0.0166299 	0 0.189685 	-0.0162848 	0 0.191202 	-0.0159452 	0 0.193302 	-0.0154918 	0 0.196207 	-0.0148771 	0 0.199202 	-0.0142812 	0 0.202284 	-0.0137032 	0 0.20484 	-0.013186 	0 0.205131 	-0.0128524 	0 0.211479 	-0.0121057 	0 0.216313 	-0.0114178 	0 0.220653 	-0.0107665 	0 0.221591 	-0.0103037 	0 0.221235 	-0.0099194 	0 0.2281 	-0.00934678 	0 0.235157 	-0.00879306 	0 0.238136 	-0.00836286 	0 0.236913 	-0.00805922 	0 0.23575 	-0.00776082 	0 0.242922 	-0.00728306 	0 0.25003 	-0.00682468 	0 0.251809 	-0.00655634 	0 0.250414 	-0.00633315 	0 0.24844 	-0.00612067 	0 0.25582 	-0.00572841 	0 0.260478 	-0.00542649 	0 0.262056 	-0.00522174 	0 0.262066 	-0.00504093 	0 0.259336 	-0.00489842 	0 0.266891 	-0.00457557 	0 0.269458 	-0.00438683 	0 0.27085 	-0.00423174 	0 0.272098 	-0.00408087 	0 0.268685 	-0.0039927 	0 0.275992 	-0.00373401 	0 0.277186 	-0.00361644 	0 0.278417 	-0.00349998 	0 0.279683 	-0.0033846 	0 0.276743 	-0.00332566 	0 0.282801 	-0.00313882 	0 0.283875 	-0.00305317 	0 0.284973 	-0.00296821 	0 0.286098 	-0.00288393 	0 0.28377 	-0.00284689 	0 0.288769 	-0.00271748 	0 0.289752 	-0.00266035 	0 0.290752 	-0.00260364 	0 0.291769 	-0.00254733 	0 0.290025 	-0.00253075 	0 0.294114 	-0.00245252 	0 0.295042 	-0.00242495 	0 0.295978 	-0.00239757 	0 0.296923 	-0.0023704 	0 0.295766 	-0.00237636 	0 0.299058 	-0.00235206 	0 0.299974 	-0.00236164 	0 0.30089 	-0.0023712 	0 0.301804 	-0.00238076 	0 0.301282 	-0.00241656 	0 0.303857 	-0.00246374 	0 0.304825 	-0.00253103 	0 0.305778 	-0.00259801 	0 0.306718 	-0.00266468 	0 0.306951 	-0.00274708 	0 0.308682 	-0.00288951 	0 0.30963 	-0.00304052 	0 0.310551 	-0.00319087 	0 0.311444 	-0.00334056 	0 0.311956 	-0.00342869 	0 0.31217 	-0.00346736 	0 0.312382 	-0.00350596 	0 0.312592 	-0.0035445 	0 0.312801 	-0.00358299 	0 0.311754 	-0.00362439 	0 0.314473 	-0.00400489 	0 0.315885 	-0.00439639 	0 0.317205 	-0.00478427 	0 0.318436 	-0.00516859 	0 0.311415 	-0.00554327 	0 0.321577 	-0.00662559 	0 0.323475 	-0.00797855 	0 0.325067 	-0.00930562 	0 0.326362 	-0.0106074 	0 0.305846 	-0.0117817 	0 0.329836 	-0.0154101 	-1.68492e-23 0.331201 	-0.0192351 	-5.81954e-23 0.331772 	-0.0229698 	-9.81995e-23 0.328475 	-0.0263616 	-1.36882e-22 0.273198 	-0.0254783 	-1.74458e-22 0.317967 	-0.0374762 	-1.37032e-22 0.339818 	-0.0455694 	-1.11597e-22 0.337998 	-0.0495335 	-1.00038e-22 0.325662 	-0.0465484 	-1.06473e-22 0.311793 	-0.0425136 	-1.16284e-22 0.3162 	-0.0467415 	-8.71454e-23 0.320051 	-0.0508959 	-5.67875e-23 0.318989 	-0.0514628 	-1.46951e-22 0.310243 	-0.048522 	-1.71792e-22 0.300635 	-0.0451669 	-1.83494e-22 0.302369 	-0.0467296 	-6.98578e-22 0.30183 	-0.0464842 	-7.23606e-22 0.301056 	-0.0460251 	-6.89299e-22 0.300328 	-0.0455734 	-6.55468e-22 0.298845 	-0.0448467 	-5.58843e-22 0.298942 	-0.0448983 	-6.20908e-22 0.298893 	-0.0448331 	-5.99254e-22 0.298844 	-0.044768 	-5.77612e-22 0.298796 	-0.0447029 	-5.55983e-22 0.298749 	-0.0446377 	-5.34272e-22 0.298988 	-0.0441373 	-3.64305e-22 0.299271 	-0.0436424 	-1.9503e-22 0.299597 	-0.0431529 	-2.64503e-23 0.299967 	-0.0426688 	1.41435e-22 0.30027 	-0.0407575 	-3.52685e-23 0.303105 	-0.0416485 	-1.87662e-22 0.303867 	-0.0413855 	-2.45281e-22 0.304088 	-0.0408042 	-2.75892e-22 0.304005 	-0.0394837 	-1.66478e-22 0.303834 	-0.0377787 	1.85584e-23 0.306262 	-0.0383387 	8.62061e-23 0.308671 	-0.038895 	1.53823e-22 0.309574 	-0.038512 	1.65147e-22 0.309309 	-0.0372726 	1.24054e-22 0.309121 	-0.0360464 	8.28763e-23 0.311259 	-0.0364626 	2.1409e-22 0.313273 	-0.0367643 	3.1781e-22 0.314817 	-0.0365962 	3.0712e-22 0.315475 	-0.0360552 	2.76392e-22 0.31532 	-0.0351676 	2.2698e-22 0.317188 	-0.0355207 	2.23661e-22 0.318545 	-0.0354669 	2.01799e-22 0.319869 	-0.0353789 	1.78342e-22 0.321206 	-0.0352934 	1.54972e-22 0.32178 	-0.0349212 	1.06671e-22 0.322605 	-0.0350517 	1.09139e-22 0.323232 	-0.0350493 	9.49091e-23 0.323862 	-0.0350472 	8.06902e-23 0.324494 	-0.0350455 	6.64821e-23 0.325132 	-0.0350441 	5.21785e-23 0.325726 	-0.0350537 	3.6906e-23 0.326322 	-0.0350635 	2.16465e-23 0.326918 	-0.0350734 	6.40003e-24 0.327516 	-0.0350836 	-8.83359e-24 0.328077 	-0.0349822 	1.14032e-23 0.329569 	-0.0352706 	9.8816e-23 0.330715 	-0.0353664 	1.02835e-22 0.331861 	-0.0354624 	1.06826e-22 0.333009 	-0.0355586 	1.1079e-22 0.333958 	-0.0353495 	-1.14588e-22 0.335811 	-0.0359529 	-4.56587e-22 0.336946 	-0.036201 	-5.76216e-22 0.337917 	-0.0363678 	-6.45127e-22 0.338745 	-0.0363872 	-5.49308e-22 0.339444 	-0.0362677 	-2.97131e-22 0.34107 	-0.0368681 	-4.39321e-22 0.342679 	-0.0374651 	-5.81518e-22 0.343458 	-0.0376709 	-5.72979e-22 0.343961 	-0.0376606 	-4.00762e-22 0.344466 	-0.0376507 	-2.28373e-22 0.345875 	-0.0382573 	-1.60244e-22 0.347268 	-0.0388608 	-9.21258e-23 0.348308 	-0.0392616 	-3.67991e-23 0.34864 	-0.0393454 	-1.03878e-23 0.348971 	-0.039429 	1.60593e-23 0.350173 	-0.0400459 	8.11068e-23 0.351222 	-0.0405832 	1.02969e-22 0.35207 	-0.0410152 	6.67232e-23 0.352752 	-0.0413826 	2.07782e-23 0.352921 	-0.0415467 	-5.64653e-23 0.353895 	-0.0421606 	-1.65029e-22 0.354556 	-0.0426306 	-1.95956e-22 0.355205 	-0.0430981 	-2.26788e-22 0.355842 	-0.0435634 	-2.57524e-22 0.356291 	-0.0439604 	-2.60414e-22 0.356503 	-0.0441373 	-2.55286e-22 0.356645 	-0.0442852 	-2.58079e-22 0.356785 	-0.0444329 	-2.60886e-22 0.356925 	-0.0445805 	-2.63705e-22 0.357058 	-0.044723 	-2.66447e-22 0.357484 	-0.0450888 	-2.86046e-22 0.357903 	-0.0454535 	-3.05813e-22 0.358316 	-0.0458171 	-3.25746e-22 0.358724 	-0.0461796 	-3.45844e-22 0.359017 	-0.0464644 	-2.33748e-22 0.35977 	-0.0471662 	-2.3129e-22 0.360195 	-0.0477103 	-2.13972e-22 0.360606 	-0.0482521 	-1.96657e-22 0.360967 	-0.0487685 	-1.6967e-22 0.361104 	-0.0491583 	-9.06594e-23 0.361837 	-0.0499428 	-1.55964e-22 0.362375 	-0.050642 	-2.02506e-22 0.362613 	-0.051206 	-2.18911e-22 0.362607 	-0.0516494 	-1.91503e-22 0.362557 	-0.0520746 	-1.57619e-22 0.363101 	-0.0528555 	-3.00791e-22 0.363628 	-0.0536332 	-4.43831e-22 0.363827 	-0.0542685 	-4.97602e-22 0.363612 	-0.0547237 	-4.37528e-22 0.363385 	-0.055178 	-3.77389e-22 0.363747 	-0.0559539 	-9.21427e-22 0.36398 	-0.056681 	-1.18171e-21 0.36403 	-0.0573364 	-1.01657e-21 0.363993 	-0.0579593 	-7.73971e-22 0.363597 	-0.0584366 	-1.57482e-22 0.363726 	-0.0591497 	-2.24782e-23 0.363618 	-0.0597764 	9.95405e-23 0.363496 	-0.0604007 	2.21481e-22 0.363359 	-0.0610224 	3.43343e-22 0.363224 	-0.0615728 	4.51581e-22 0.363221 	-0.0616207 	4.60928e-22 0.363219 	-0.0616685 	4.70275e-22 0.363216 	-0.0617164 	4.79621e-22 0.363214 	-0.0617642 	4.88967e-22 0.363199 	-0.061805 	4.91236e-22 0.363092 	-0.0624988 	5.61968e-22 0.362941 	-0.0631748 	5.96841e-22 0.362775 	-0.0638485 	6.32686e-22 0.362594 	-0.0645198 	6.69506e-22 0.362202 	-0.0650892 	1.36689e-22 0.362239 	-0.0659293 	-3.81723e-22 0.362029 	-0.0666522 	-6.52293e-22 0.361698 	-0.0673199 	-8.09319e-22 0.361184 	-0.067905 	-4.87142e-22 0.36059 	-0.068459 	2.11169e-23 0.360457 	-0.0692766 	4.18296e-22 0.360306 	-0.0700912 	8.15244e-22 0.359888 	-0.0707884 	8.57785e-22 0.359145 	-0.071338 	5.62701e-22 0.358384 	-0.0718878 	2.66265e-22 0.358086 	-0.0726808 	4.97431e-22 0.357642 	-0.0734166 	5.70335e-22 0.357066 	-0.0741021 	5.04344e-22 0.356474 	-0.0747848 	4.37482e-22 0.355607 	-0.075351 	2.1605e-22 0.355367 	-0.0757464 	4.52066e-22 0.354999 	-0.0760912 	4.00031e-22 0.354626 	-0.0764353 	3.47602e-22 0.354248 	-0.0767788 	2.94777e-22 0.353887 	-0.0771022 	2.44565e-22 0.353592 	-0.0774377 	2.25043e-22 0.353294 	-0.0777728 	2.05329e-22 0.352991 	-0.0781073 	1.85425e-22 0.352685 	-0.0784412 	1.65329e-22 0.35229 	-0.0787246 	2.78542e-22 0.351767 	-0.0794996 	2.13014e-22 0.351036 	-0.080164 	1.43125e-22 0.350289 	-0.0808264 	7.30673e-23 0.349446 	-0.0814416 	4.1866e-23 0.348468 	-0.0819938 	6.6015e-23 0.347862 	-0.0827713 	5.53135e-23 0.347238 	-0.0835461 	4.46117e-23 0.346351 	-0.0841867 	5.55989e-23 0.345241 	-0.0847144 	5.42584e-23 0.344109 	-0.0852431 	5.25111e-23 0.343354 	-0.085983 	-2.5997e-22 0.34249 	-0.0866743 	-4.21274e-22 0.341496 	-0.0873054 	-3.93391e-22 0.340485 	-0.087934 	-3.65201e-22 0.339241 	-0.0884567 	-1.82074e-22 0.33884 	-0.0887685 	-2.77999e-22 0.338353 	-0.089039 	-2.99301e-22 0.337855 	-0.089305 	-3.13164e-22 0.337352 	-0.0895705 	-3.27019e-22 0.336869 	-0.0898238 	-3.4025e-22 0.336311 	-0.0901728 	-3.20719e-22 0.335749 	-0.0905212 	-3.00972e-22 0.335181 	-0.0908689 	-2.81009e-22 0.334606 	-0.0912138 	-2.67654e-22 0.333941 	-0.0914987 	-4.44065e-22 0.333052 	-0.0922201 	-1.37385e-21 0.331939 	-0.0928101 	-1.54118e-21 0.330808 	-0.0933978 	-1.70861e-21 0.329561 	-0.0939127 	-1.04085e-21 0.328233 	-0.0943897 	9.93397e-23 0.327207 	-0.0950671 	8.48754e-22 0.326163 	-0.0957421 	1.59745e-21 0.324971 	-0.0963282 	1.8172e-21 0.323529 	-0.0967711 	1.4171e-21 0.32206 	-0.0972156 	1.0144e-21 0.320937 	-0.0978298 	1.33529e-21 0.319662 	-0.0983549 	1.28383e-21 0.318346 	-0.0988623 	1.16517e-21 0.317014 	-0.0993675 	1.04588e-21 0.315785 	-0.0998257 	9.36638e-22 0.31572 	-0.0998538 	9.32215e-22 0.315656 	-0.0998818 	9.27792e-22 0.315592 	-0.0999099 	9.23367e-22 0.315526 	-0.0999373 	9.18054e-22 0.315456 	-0.0999596 	9.05602e-22 0.314166 	-0.10049 	6.98535e-22 0.312843 	-0.101005 	4.8991e-22 0.311503 	-0.101519 	2.80748e-22 0.310126 	-0.102011 	1.11995e-22 0.308622 	-0.102412 	1.26978e-22 0.30736 	-0.103005 	-1.88331e-22 0.306079 	-0.103595 	-5.03576e-22 0.304608 	-0.104058 	-5.15453e-22 0.303001 	-0.104422 	-2.97478e-22 0.301363 	-0.104787 	-7.83532e-23 0.299977 	-0.105337 	-9.35827e-23 0.298501 	-0.105823 	-4.59707e-23 0.296949 	-0.106258 	5.18408e-23 0.295379 	-0.106691 	1.48952e-22 0.293708 	-0.107084 	2.04865e-22 0.293466 	-0.107166 	2.38049e-22 0.293208 	-0.107235 	2.61228e-22 0.292943 	-0.107299 	2.80775e-22 0.292678 	-0.107363 	3.00311e-22 0.292416 	-0.107426 	3.19557e-22 0.291152 	-0.107785 	6.55894e-22 0.289877 	-0.108143 	9.93571e-22 0.28859 	-0.108499 	1.3326e-21 0.287277 	-0.108836 	1.47297e-21 0.285881 	-0.109094 	7.57757e-22 0.284414 	-0.109588 	9.014e-22 0.282924 	-0.110078 	1.03667e-21 0.281262 	-0.110438 	8.46249e-22 0.279511 	-0.110707 	4.32983e-22 0.277722 	-0.110978 	1.51418e-23 0.27614 	-0.11143 	-1.15361e-21 0.274489 	-0.111821 	-1.66224e-21 0.272771 	-0.112152 	-1.51088e-21 0.271035 	-0.11248 	-1.35636e-21 0.269201 	-0.112772 	-9.42414e-22 0.268954 	-0.112831 	-1.00045e-21 0.268697 	-0.11288 	-9.95407e-22 0.268435 	-0.112922 	-9.59026e-22 0.268172 	-0.112965 	-9.22614e-22 0.267912 	-0.113007 	-8.86624e-22 0.266489 	-0.113283 	-8.00204e-22 0.265054 	-0.113558 	-7.13634e-22 0.263606 	-0.113831 	-6.26914e-22 0.262134 	-0.114076 	-4.70735e-22 0.260595 	-0.114242 	-1.04187e-22 0.258949 	-0.114623 	1.58143e-21 0.257284 	-0.115001 	3.26562e-21 0.25549 	-0.115257 	3.62821e-21 0.253615 	-0.11541 	2.51584e-21 0.251693 	-0.115563 	1.38748e-21 0.249998 	-0.115888 	1.7419e-21 0.248243 	-0.116131 	1.47407e-21 0.246447 	-0.116328 	8.76841e-22 0.244633 	-0.116522 	2.78032e-22 0.242944 	-0.1167 	-2.75643e-22 0.242851 	-0.116712 	-2.97467e-22 0.242757 	-0.116724 	-3.19291e-22 0.242663 	-0.116736 	-3.41116e-22 0.242569 	-0.116746 	-3.5856e-22 0.242474 	-0.116751 	-3.65716e-22 0.240698 	-0.116961 	-9.95234e-22 0.238892 	-0.117155 	-1.55195e-21 0.237068 	-0.117347 	-2.11048e-21 0.235217 	-0.117484 	-2.18546e-21 0.2333 	-0.117536 	-1.4572e-21 0.231497 	-0.117779 	-2.08117e-21 0.229676 	-0.11802 	-2.70345e-21 0.227811 	-0.118153 	-2.5257e-21 0.225836 	-0.118165 	-1.66463e-21 0.223799 	-0.118169 	-7.60857e-22 0.22265 	-0.118287 	-5.96458e-22 0.221481 	-0.118354 	-3.70888e-22 0.220296 	-0.118383 	-1.01312e-22 0.219104 	-0.118412 	1.68365e-22 0.217961 	-0.118438 	4.25422e-22 0.217205 	-0.118471 	6.24139e-22 0.216445 	-0.118503 	8.22948e-22 0.215682 	-0.118534 	1.02185e-21 0.214919 	-0.118544 	1.10098e-21 0.214151 	-0.118513 	9.59411e-22 0.212313 	-0.118642 	1.50034e-21 0.210402 	-0.118698 	1.76671e-21 0.208459 	-0.118731 	1.95542e-21 0.206506 	-0.118618 	1.35931e-21 0.204492 	-0.11849 	6.88584e-22 0.202554 	-0.118566 	-6.77076e-23 0.200597 	-0.118582 	-5.22543e-22 0.198623 	-0.118494 	-4.42698e-22 0.19663 	-0.118403 	-3.6152e-22 0.194538 	-0.11827 	-2.0283e-22 0.194304 	-0.118273 	-2.05137e-22 0.194069 	-0.118266 	-2.03464e-22 0.193834 	-0.11825 	-1.9788e-22 0.193599 	-0.118235 	-1.9229e-22 0.193365 	-0.118219 	-1.86742e-22 0.191667 	-0.118129 	-2.08289e-22 0.189955 	-0.118037 	-2.29882e-22 0.188228 	-0.117943 	-2.5152e-22 0.186569 	-0.117797 	-1.93969e-22 0.18498 	-0.117572 	-1.55346e-23 0.182956 	-0.117494 	-7.9469e-22 0.180912 	-0.117412 	-1.57096e-21 0.179001 	-0.117227 	-1.47065e-21 0.177163 	-0.116923 	-6.14717e-22 0.175254 	-0.116608 	2.68663e-22 0.17413 	-0.116536 	-1.58118e-22 0.173055 	-0.116426 	-2.80466e-22 0.172034 	-0.116274 	-8.33484e-23 0.171007 	-0.116122 	1.14755e-22 0.170014 	-0.115975 	3.06435e-22 0.169046 	-0.11584 	6.36141e-22 0.168074 	-0.115705 	9.67201e-22 0.167098 	-0.115569 	1.29963e-21 0.166207 	-0.115401 	8.92368e-22 0.16536 	-0.115209 	-2.64339e-23 0.16323 	-0.114925 	-2.15038e-21 0.16108 	-0.114638 	-4.26705e-21 0.159072 	-0.114264 	-4.30565e-21 0.157245 	-0.113809 	-2.1956e-21 0.15534 	-0.113335 	-1.97171e-23 0.154118 	-0.113146 	1.06523e-21 0.15294 	-0.112935 	1.68738e-21 0.151873 	-0.112679 	1.2698e-21 0.1508 	-0.112422 	8.50556e-22 0.149763 	-0.112174 	4.45367e-22 0.148856 	-0.111967 	4.12946e-22 0.147946 	-0.11176 	3.80179e-22 0.147031 	-0.111552 	3.47062e-22 0.146193 	-0.111305 	4.00545e-22 0.14537 	-0.111038 	4.8842e-22 0.143329 	-0.110578 	5.51489e-22 0.141268 	-0.110114 	6.13172e-22 0.139326 	-0.109568 	3.06887e-22 0.137493 	-0.108937 	-4.30508e-22 0.135578 	-0.108281 	-1.19176e-21 0.13481 	-0.108092 	-2.21875e-21 0.134054 	-0.107894 	-2.9317e-21 0.133365 	-0.10766 	-2.24082e-21 0.132674 	-0.107426 	-1.54876e-21 0.131997 	-0.107196 	-8.71005e-22 0.130752 	-0.10679 	1.57952e-22 0.1295 	-0.106382 	1.19021e-21 0.128241 	-0.105972 	2.22582e-21 0.1271 	-0.105501 	1.57872e-21 0.125952 	-0.105006 	5.84417e-22 0.123948 	-0.104352 	2.08814e-21 0.121938 	-0.103687 	3.46694e-21 0.120126 	-0.10291 	2.811e-21 0.1183 	-0.10213 	2.15382e-21 0.11639 	-0.101313 	1.43742e-21 0.116361 	-0.101303 	1.44201e-21 0.116332 	-0.101293 	1.44566e-21 0.116306 	-0.101281 	1.43435e-21 0.11628 	-0.101269 	1.42303e-21 0.116254 	-0.101258 	1.41173e-21 0.114419 	-0.100455 	8.01292e-22 0.112568 	-0.0996491 	1.91052e-22 0.110702 	-0.0988399 	-4.18974e-22 0.109026 	-0.0979279 	-6.92207e-22 0.107292 	-0.096975 	-9.53182e-22 0.106228 	-0.0965104 	-1.35863e-21 0.105159 	-0.0960443 	-1.76203e-21 0.104204 	-0.0955181 	-1.40856e-21 0.103246 	-0.0949909 	-1.05477e-21 0.102309 	-0.0944767 	-7.09961e-22 0.101489 	-0.094038 	-2.03056e-22 0.100666 	-0.0935986 	3.04489e-22 0.099843 	-0.0931573 	7.89911e-22 0.0991124 	-0.09267 	3.40328e-22 0.0983687 	-0.0921749 	-1.15632e-22 0.0965901 	-0.0912115 	-8.78588e-22 0.0947971 	-0.0902443 	-1.63827e-21 0.0931852 	-0.08918 	-1.28552e-21 0.0915745 	-0.0881078 	-8.68001e-22 0.0900152 	-0.0870738 	-4.64448e-22 0.089965 	-0.0870413 	-4.5907e-22 0.0899149 	-0.0870087 	-4.53691e-22 0.0898652 	-0.0869759 	-4.50819e-22 0.0898211 	-0.0869406 	-4.7258e-22 0.0897769 	-0.0869052 	-4.94359e-22 0.0881216 	-0.0857928 	-9.24185e-22 0.0864601 	-0.0846707 	-1.30189e-21 0.0848204 	-0.0835307 	-1.58037e-21 0.0833363 	-0.0823112 	-1.35093e-21 0.0818066 	-0.0810577 	-1.11619e-21 0.0812568 	-0.0806829 	-1.12723e-21 0.0807058 	-0.0803079 	-1.13837e-21 0.0802081 	-0.0799071 	-1.13419e-21 0.0797189 	-0.0795019 	-1.12747e-21 0.0792337 	-0.0791004 	-1.12086e-21 0.0782119 	-0.0782665 	-1.08074e-21 0.077187 	-0.0774318 	-1.04084e-21 0.0761783 	-0.0765877 	-9.07125e-22 0.0752734 	-0.0756947 	-2.51658e-22 0.0743585 	-0.074792 	4.10862e-22 0.0734044 	-0.0740015 	1.59082e-21 0.0724476 	-0.0732101 	2.76983e-21 0.0715833 	-0.0723754 	2.59148e-21 0.0707383 	-0.0715315 	2.12772e-21 0.0699007 	-0.070695 	1.66799e-21 0.0694067 	-0.0702064 	1.81257e-21 0.0689126 	-0.0697178 	1.95715e-21 0.0684297 	-0.0692242 	2.00205e-21 0.0679982 	-0.0687081 	1.59468e-21 0.0675676 	-0.0681922 	1.18727e-21 0.0663668 	-0.0669776 	-4.06325e-22 0.0651661 	-0.0657631 	-1.99994e-21 0.0640878 	-0.0644955 	-1.09722e-21 0.0630426 	-0.0632168 	3.8752e-22 0.0619985 	-0.0619339 	1.87836e-21 0.0619078 	-0.0618226 	2.00254e-21 0.0618172 	-0.0617114 	2.12671e-21 0.0617287 	-0.0615992 	2.2087e-21 0.0616501 	-0.0614827 	2.09446e-21 0.0615718 	-0.0613666 	1.98041e-21 0.0604805 	-0.0599983 	3.20749e-21 0.0594006 	-0.0586253 	4.19755e-21 0.0583833 	-0.0572287 	3.88156e-21 0.0574691 	-0.0557972 	1.52884e-21 0.0565971 	-0.0544108 	-7.65562e-22 0.0563749 	-0.0541101 	-1.47519e-21 0.0561532 	-0.0538097 	-2.18526e-21 0.055958 	-0.0534987 	-1.98023e-21 0.0557682 	-0.0531861 	-1.61282e-21 0.0555776 	-0.0528708 	-1.24239e-21 0.0549412 	-0.0518124 	-4.24806e-22 0.0543164 	-0.0507577 	3.88272e-22 0.0537157 	-0.0497018 	1.05848e-21 0.0532025 	-0.0486175 	8.71092e-22 0.0527275 	-0.0475859 	6.85225e-22 0.0523041 	-0.0468016 	1.2381e-21 0.0518893 	-0.0460205 	1.79002e-21 0.0515404 	-0.0452179 	1.90716e-21 0.0512076 	-0.0444169 	1.98275e-21 0.050869 	-0.0435774 	2.06091e-21 0.0506802 	-0.0430883 	2.14803e-21 0.0504961 	-0.0426009 	2.23438e-21 0.0503174 	-0.042115 	2.30933e-21 0.0501682 	-0.0416162 	1.91902e-21 0.0500293 	-0.0411355 	1.54043e-21 0.0496232 	-0.0399212 	1.18814e-21 0.0492514 	-0.0387205 	8.35754e-22 0.0489593 	-0.0375076 	5.59469e-23 0.0487195 	-0.0362932 	-8.82759e-22 0.0485384 	-0.0351934 	-1.76031e-21 0.0484999 	-0.0349787 	-1.87617e-21 0.0484644 	-0.0347637 	-1.98207e-21 0.0484386 	-0.0345442 	-2.03404e-21 0.0484144 	-0.0343254 	-2.08595e-21 0.0483911 	-0.0340993 	-2.13973e-21 0.0483149 	-0.0332331 	-2.82167e-21 0.0482659 	-0.0323785 	-3.49496e-21 0.0482448 	-0.0315358 	-4.15929e-21 0.0482391 	-0.0307021 	-3.15194e-21 0.0482579 	-0.0299439 	-1.85239e-21 0.0483596 	-0.0289927 	-3.60742e-21 0.048503 	-0.0280613 	-5.07778e-21 0.0486671 	-0.0271487 	-4.14652e-21 0.0488771 	-0.0262572 	-3.24503e-21 0.0490848 	-0.0254494 	-1.26763e-21 0.0491554 	-0.0252652 	-1.21004e-21 0.0492242 	-0.0250821 	-1.22076e-21 0.0492912 	-0.0249002 	-1.29745e-21 0.0493605 	-0.0247193 	-1.37372e-21 0.0494369 	-0.0245267 	-1.4549e-21 0.04969 	-0.023929 	-1.54945e-21 0.0499679 	-0.0233431 	-1.64294e-21 0.0502704 	-0.022769 	-1.73535e-21 0.0505243 	-0.0222411 	-1.64056e-21 0.0506945 	-0.0217948 	-1.31983e-21 0.0512678 	-0.0210832 	-1.4534e-21 0.0518867 	-0.0203912 	-1.59143e-21 0.0523641 	-0.0197781 	-1.29648e-21 0.0527057 	-0.0192483 	-4.82314e-22 0.0530549 	-0.0187631 	2.81247e-22 0.0537897 	-0.0181561 	1.8929e-21 0.054436 	-0.0176153 	2.36957e-21 0.0550072 	-0.0171315 	1.87421e-21 0.0556096 	-0.0166611 	1.38836e-21 0.0561096 	-0.0162441 	6.19262e-23 0.056491 	-0.0160156 	-8.25727e-22 0.0567718 	-0.0158267 	-6.57143e-22 0.057058 	-0.0156401 	-4.92793e-22 0.0573495 	-0.0154557 	-3.32636e-22 0.0576997 	-0.0152408 	-1.48559e-22 0.0580713 	-0.0150224 	-4.71022e-23 0.0584503 	-0.0148073 	4.99462e-23 0.0588368 	-0.0145954 	1.42647e-22 0.0592305 	-0.0143867 	2.31062e-22 0.0591793 	-0.0142509 	-5.45567e-22 0.0603393 	-0.0138288 	-5.07775e-22 0.0610843 	-0.0134697 	-3.61851e-22 0.0618515 	-0.0131202 	-2.16668e-22 0.0623437 	-0.0128207 	-3.14965e-22 0.062166 	-0.0126268 	-9.6501e-22 0.0636285 	-0.012234 	6.48783e-22 0.0650038 	-0.011865 	2.05527e-21 0.0658224 	-0.0115658 	2.45258e-21 0.0656392 	-0.0114014 	1.625e-21 0.0654652 	-0.0112417 	8.10872e-22 0.0670453 	-0.0108899 	-1.03051e-21 0.0686578 	-0.0105477 	-2.87322e-21 0.0693583 	-0.0103163 	-2.81943e-21 0.0691663 	-0.0101814 	-9.65508e-22 0.0689816 	-0.0100497 	8.66957e-22 0.0706664 	-0.00973218 	3.18524e-21 0.07215 	-0.0094469 	4.95453e-21 0.0727565 	-0.00926305 	4.56167e-21 0.0728559 	-0.00912549 	2.68977e-21 0.0726481 