# vtk DataFile Version 2.0
track0
ASCII
DATASET POLYDATA
POINTS 10989 double
-0.0205 0.001 1e-05
-0.0202034 0.000995436 1e-05
-0.0199071 0.000981944 1e-05
-0.0196114 0.000959648 1e-05
-0.0193164 0.000928315 1e-05
-0.0190172 0.000889729 1e-05
-0.0187132 0.000850887 1e-05
-0.0184092 0.000812921 1e-05
-0.0181051 0.000775812 1e-05
-0.0178006 0.000741405 1e-05
-0.0174976 0.000709872 1e-05
-0.0173934 0.00070001 1e-05
-0.0172893 0.000690507 1e-05
-0.0171851 0.000681301 1e-05
-0.0170809 0.000672353 1e-05
-0.0169395 0.000660566 1e-05
-0.0167593 0.000646127 1e-05
-0.0165791 0.000632461 1e-05
-0.0163988 0.000619537 1e-05
-0.0162185 0.000607321 1e-05
-0.0160387 0.000595745 1e-05
-0.0157586 0.000578194 1e-05
-0.0154784 0.000562154 1e-05
-0.0151981 0.00054736 1e-05
-0.0149177 0.000533682 1e-05
-0.0146381 0.000520678 1e-05
-0.0143692 0.00050862 1e-05
-0.0141002 0.000497599 1e-05
-0.0138312 0.00048754 1e-05
-0.0135621 0.000478092 1e-05
-0.0132934 0.000468952 1e-05
-0.0130353 0.000460452 1e-05
-0.0127771 0.000452711 1e-05
-0.0125188 0.000445663 1e-05
-0.0122606 0.000438939 1e-05
-0.0120025 0.000432412 1e-05
-0.0117547 0.000426306 1e-05
-0.0115068 0.000420755 1e-05
-0.0112589 0.000415591 1e-05
-0.011011 0.000410651 1e-05
-0.0107632 0.000405885 1e-05
-0.0105252 0.00040139 1e-05
-0.0102873 0.00039731 1e-05
-0.0100493 0.000393436 1e-05
-0.0098113 0.000389718 1e-05
-0.00957337 0.000386149 1e-05
-0.00934491 0.000382754 1e-05
-0.00911645 0.000379663 1e-05
-0.00888798 0.000376683 1e-05
-0.00865952 0.000373811 1e-05
-0.00843108 0.000371046 1e-05
-0.00821175 0.00036841 1e-05
-0.00799242 0.000365976 1e-05
-0.00777309 0.000363617 1e-05
-0.00755375 0.000361332 1e-05
-0.00733443 0.000359122 1e-05
-0.00712387 0.000357009 1e-05
-0.0069133 0.000355028 1e-05
-0.00670273 0.000353094 1e-05
-0.00649216 0.000351209 1e-05
-0.0062816 0.00034937 1e-05
-0.00607944 0.000347606 1e-05
-0.00587729 0.000345921 1e-05
-0.00567514 0.000344259 1e-05
-0.00547298 0.000342622 1e-05
-0.00527083 0.000341008 1e-05
-0.00507675 0.000339448 1e-05
-0.00488267 0.000337922 1e-05
-0.0046886 0.000336394 1e-05
-0.00449452 0.000334865 1e-05
-0.00430044 0.000333334 1e-05
-0.00411412 0.000331839 1e-05
-0.0039278 0.000330328 1e-05
-0.00374147 0.000328781 1e-05
-0.00355515 0.000327198 1e-05
-0.00336883 0.00032558 1e-05
-0.00321823 0.000324232 1e-05
-0.00306763 0.000322822 1e-05
-0.00291703 0.000321343 1e-05
-0.00276644 0.000319796 1e-05
-0.00267738 0.000318841 1e-05
-0.00263679 0.000318394 1e-05
-0.0025962 0.000317944 1e-05
-0.00255561 0.000317488 1e-05
-0.00251502 0.000317028 1e-05
-0.00247443 0.000316563 1e-05
-0.0023027 0.000314566 1e-05
-0.00213097 0.000312379 1e-05
-0.00195924 0.000309989 1e-05
-0.00178752 0.000307399 1e-05
-0.00161577 0.000304612 1e-05
-0.0014509 0.000301677 1e-05
-0.00128604 0.00029828 1e-05
-0.00112119 0.000294214 1e-05
-0.000956364 0.000289496 1e-05
-0.000791418 0.000284135 1e-05
-0.000633135 0.000278037 1e-05
-0.000474906 0.000270645 1e-05
-0.000316772 0.000261461 1e-05
-0.000158749 0.00025052 1e-05
0 0.00023778 1e-05
0.000105677 0.000227925 1e-05
0.000211084 0.000215501 1e-05
0.000316278 0.000201395 1e-05
0.000421293 0.000186005 1e-05
0.000528387 0.000170697 1e-05
0.000634886 0.000156176 1e-05
0.000741215 0.000140458 1e-05
0.000847366 0.000123578 1e-05
0.000953479 0.000106458 1e-05
0.00106088 8.96604e-05 1e-05
0.00116821 7.35357e-05 1e-05
0.00127547 5.69595e-05 1e-05
0.00138273 4.04395e-05 1e-05
0.00149002 2.40378e-05 1e-05
0.00159752 7.72553e-06 1e-05
0.00160781 6.18042e-06 1e-05
0.00161811 4.63407e-06 1e-05
0.00162841 3.08967e-06 1e-05
0.0016387 1.54722e-06 1e-05
0.00164904 0 1e-05
0.0017469 -1.46212e-05 1e-05
0.00184478 -2.90708e-05 1e-05
0.00194269 -4.33484e-05 1e-05
0.00204062 -5.74542e-05 1e-05
0.00213833 -7.13521e-05 1e-05
0.00224733 -8.61477e-05 1e-05
0.00235631 -0.000101122 1e-05
0.0024653 -0.000115967 1e-05
0.00257433 -0.000130596 1e-05
0.00268334 -0.000144754 1e-05
0.00279319 -0.000158413 1e-05
0.00290303 -0.000172163 1e-05
0.00301285 -0.000186002 1e-05
0.0031227 -0.000199668 1e-05
0.00323259 -0.000212909 1e-05
0.00334329 -0.000225818 1e-05
0.00345399 -0.000238786 1e-05
0.00356468 -0.000251777 1e-05
0.00367539 -0.000264646 1e-05
0.00378611 -0.0002773 1e-05
0.00389767 -0.000289742 1e-05
0.00400923 -0.000302235 1e-05
0.0041208 -0.000314657 1e-05
0.00423237 -0.000326998 1e-05
0.00434393 -0.000339256 1e-05
0.0044067 -0.000346067 1e-05
0.00446946 -0.000352887 1e-05
0.00453223 -0.000359693 1e-05
0.004595 -0.000366486 1e-05
0.00465824 -0.000373316 1e-05
0.00470781 -0.000378659 1e-05
0.00475738 -0.000383993 1e-05
0.00480695 -0.00038932 1e-05
0.00485653 -0.000394638 1e-05
0.00490609 -0.000399948 1e-05
0.0050194 -0.000412029 1e-05
0.0051327 -0.000424155 1e-05
0.005246 -0.000436271 1e-05
0.0053593 -0.000448379 1e-05
0.00547262 -0.000460479 1e-05
0.00558681 -0.000472566 1e-05
0.00570098 -0.000484789 1e-05
0.00581515 -0.000497055 1e-05
0.00592931 -0.000509342 1e-05
0.00604356 -0.000521614 1e-05
0.00615863 -0.000533909 1e-05
0.00627369 -0.000546346 1e-05
0.00638874 -0.000558924 1e-05
0.00650378 -0.000571542 1e-05
0.00661893 -0.00058415 1e-05
0.0067349 -0.000596826 1e-05
0.00685085 -0.000609652 1e-05
0.00696679 -0.000622626 1e-05
0.00708272 -0.000635693 1e-05
0.00719878 -0.000648791 1e-05
0.00731565 -0.000661996 1e-05
0.0074325 -0.000675359 1e-05
0.00754934 -0.00068886 1e-05
0.00766617 -0.000702469 1e-05
0.00778313 -0.000716191 1e-05
0.00790091 -0.000730057 1e-05
0.00801867 -0.000744086 1e-05
0.00813642 -0.000758243 1e-05
0.00825415 -0.000772528 1e-05
0.00837203 -0.000786959 1e-05
0.00840692 -0.000791264 1e-05
0.0084418 -0.000795582 1e-05
0.00847668 -0.000799914 1e-05
0.00851156 -0.000804258 1e-05
0.00854532 -0.000808474 1e-05
0.00862936 -0.000819 1e-05
0.00871339 -0.000829599 1e-05
0.00879741 -0.000840269 1e-05
0.00888142 -0.000851011 1e-05
0.00896551 -0.000861837 1e-05
0.00908513 -0.000877318 1e-05
0.00920472 -0.000892997 1e-05
0.00932429 -0.000908835 1e-05
0.00944384 -0.000924832 1e-05
0.0095636 -0.000941012 1e-05
0.00968415 -0.000957422 1e-05
0.00980467 -0.000974057 1e-05
0.00992516 -0.000990895 1e-05
0.0100456 -0.00100791 1e-05
0.0101663 -0.0010251 1e-05
0.0102878 -0.00104255 1e-05
0.0104093 -0.00106023 1e-05
0.0105307 -0.00107814 1e-05
0.0106521 -0.00109625 1e-05
0.0107738 -0.00111456 1e-05
0.0108962 -0.00113315 1e-05
0.0110186 -0.00115198 1e-05
0.011141 -0.00117103 1e-05
0.0112633 -0.0011903 1e-05
0.0113859 -0.00120983 1e-05
0.0115032 -0.00122867 1e-05
0.0116204 -0.00124773 1e-05
0.0117376 -0.00126699 1e-05
0.0118547 -0.00128646 1e-05
0.0119588 -0.00130394 1e-05
0.0119676 -0.00130543 1e-05
0.0119764 -0.00130693 1e-05
0.0119852 -0.00130842 1e-05
0.011994 -0.00130992 1e-05
0.0120028 -0.00131142 1e-05
0.0121272 -0.00133258 1e-05
0.0122515 -0.00135397 1e-05
0.0123757 -0.0013756 1e-05
0.0125 -0.00139746 1e-05
0.0126245 -0.00141963 1e-05
0.0127498 -0.00144215 1e-05
0.0128751 -0.00146495 1e-05
0.0130003 -0.001488 1e-05
0.0131255 -0.0015113 1e-05
0.0132511 -0.00153491 1e-05
0.0133774 -0.00155889 1e-05
0.0135036 -0.00158315 1e-05
0.0136298 -0.00160769 1e-05
0.0137559 -0.0016325 1e-05
0.0138825 -0.00165765 1e-05
0.0140098 -0.00168317 1e-05
0.014137 -0.00170899 1e-05
0.0142641 -0.00173509 1e-05
0.0143912 -0.00176147 1e-05
0.0145188 -0.00178824 1e-05
0.0145851 -0.00180229 1e-05
0.0146514 -0.00181643 1e-05
0.0147177 -0.00183064 1e-05
0.014784 -0.00184492 1e-05
0.0148465 -0.00185847 1e-05
0.0149092 -0.00187213 1e-05
0.0149719 -0.00188587 1e-05
0.0150346 -0.00189966 1e-05
0.0150973 -0.00191353 1e-05
0.0151601 -0.0019275 1e-05
0.0152893 -0.00195638 1e-05
0.0154185 -0.00198557 1e-05
0.0155476 -0.00201506 1e-05
0.0156767 -0.00204484 1e-05
0.0158063 -0.00207505 1e-05
0.0159366 -0.0021057 1e-05
0.0160668 -0.00213668 1e-05
0.0161969 -0.00216798 1e-05
0.0163269 -0.00219959 1e-05
0.0164576 -0.00223166 1e-05
0.0165889 -0.00226418 1e-05
0.0167201 -0.00229703 1e-05
0.0168512 -0.00233021 1e-05
0.0169822 -0.0023637 1e-05
0.0171139 -0.00239773 1e-05
0.0171727 -0.00241306 1e-05
0.0172315 -0.00242846 1e-05
0.0172902 -0.00244392 1e-05
0.017349 -0.00245944 1e-05
0.0174051 -0.00247434 1e-05
0.0174791 -0.00249409 1e-05
0.0175532 -0.00251394 1e-05
0.0176272 -0.00253389 1e-05
0.0177012 -0.00255395 1e-05
0.0177754 -0.00257418 1e-05
0.0179087 -0.00261071 1e-05
0.0180419 -0.0026476 1e-05
0.0181751 -0.00268482 1e-05
0.0183081 -0.00272238 1e-05
0.018442 -0.00276053 1e-05
0.0185763 -0.00279917 1e-05
0.0187106 -0.00283817 1e-05
0.0188447 -0.00287755 1e-05
0.0189788 -0.00291728 1e-05
0.0191137 -0.00295766 1e-05
0.0192448 -0.0029972 1e-05
0.0193757 -0.00303711 1e-05
0.0195065 -0.00307736 1e-05
0.0196372 -0.00311795 1e-05
0.0197561 -0.00315523 1e-05
0.0197631 -0.00315742 1e-05
0.01977 -0.00315961 1e-05
0.0197769 -0.0031618 1e-05
0.0197838 -0.00316399 1e-05
0.0197907 -0.00316618 1e-05
0.0199272 -0.00320942 1e-05
0.0200635 -0.00325303 1e-05
0.0201997 -0.003297 1e-05
0.0203358 -0.00334136 1e-05
0.020473 -0.00338647 1e-05
0.0206105 -0.00343211 1e-05
0.0207479 -0.00347814 1e-05
0.0208851 -0.00352459 1e-05
0.0210222 -0.00357143 1e-05
0.0211606 -0.0036191 1e-05
0.0212991 -0.00366729 1e-05
0.0214376 -0.0037159 1e-05
0.0215759 -0.00376492 1e-05
0.021714 -0.00381436 1e-05
0.0218535 -0.00386473 1e-05
0.0218759 -0.00387291 1e-05
0.0218983 -0.00388109 1e-05
0.0219207 -0.00388929 1e-05
0.0219431 -0.0038975 1e-05
0.0219652 -0.0039056 1e-05
0.0220825 -0.0039487 1e-05
0.0221997 -0.00399209 1e-05
0.0223168 -0.00403577 1e-05
0.0224338 -0.00407975 1e-05
0.0225517 -0.00412444 1e-05
0.0226925 -0.00417814 1e-05
0.0228331 -0.00423231 1e-05
0.0229735 -0.00428693 1e-05
0.0231137 -0.00434199 1e-05
0.0232555 -0.00439815 1e-05
0.0233973 -0.00445483 1e-05
0.023539 -0.00451199 1e-05
0.0236804 -0.00456961 1e-05
0.0238217 -0.0046277 1e-05
0.0239647 -0.00468703 1e-05
0.0239854 -0.00469574 1e-05
0.0240062 -0.00470445 1e-05
0.024027 -0.00471317 1e-05
0.0240477 -0.0047219 1e-05
0.0240682 -0.00473054 1e-05
0.0241905 -0.0047821 1e-05
0.0243125 -0.00483399 1e-05
0.0244345 -0.00488624 1e-05
0.0245563 -0.00493883 1e-05
[...]
POINT_DATA 10989
 FIELD attributes 2
p 1 10989 float
-0.117746 -0.111753 -0.105933 -0.100745 -0.0930521 -0.0772853 -0.0630218 -0.0487866 -0.0409624 -0.0337509 -0.0279326 -0.0259232 -0.0241752 -0.0225809 -0.0209883 -0.0188307 -0.0158015 -0.0127924 -0.00980239 -0.00699674 -0.00485084 -0.000955915 0.00254206 0.00587426 0.00848675 0.0108092 0.0134948 0.0161704 0.0182741 0.0198024 0.0213262 0.0231786 0.0250053 0.0263328 0.0273705 0.0283511 0.0296305 0.0307185 0.031595 0.0323679 0.032964 0.0338319 0.0344444 0.0349949 0.0355361 0.0358563 0.0364087 0.0367191 0.0370292 0.0373392 0.0374948 0.0377814 0.0379082 0.038035 0.0381616 0.0381851 0.0382726 0.0382515 0.0382304 0.0382092 0.0381175 0.0380427 0.0378925 0.0377422 0.0375919 0.037393 0.037169 0.0368918 0.0366146 0.0363373 0.0360281 0.0356414 0.0352181 0.0347949 0.0343717 0.0339324 0.0334259 0.0328991 0.0323723 0.0318455 0.031534 0.0313938 0.0312537 0.0311135 0.0309734 0.0308259 0.0298921 0.0289489 0.0280069 0.0270661 0.0260581 0.0245811 0.0229962 0.0214175 0.0198447 0.0179701 0.0157317 0.0133432 0.0109644 0.00844748 0.00347645 0.000798619 -0.00124609 -0.00256926 -0.00165314 -0.000374457 0.0014012 0.00314236 0.00476743 0.00600313 0.00721267 0.00883104 0.00972807 0.0105404 0.0113563 0.0120856 0.0121509 0.0121894 0.0122279 0.0122665 0.0123053 0.0127378 0.0131732 0.0136113 0.0140521 0.0145405 0.0150772 0.0154861 0.0158615 0.0162093 0.0165464 0.0169983 0.017449 0.0177293 0.0178615 0.0179981 0.0182844 0.0185526 0.0187481 0.0188603 0.0188953 0.0190708 0.0191812 0.0192865 0.0193925 0.0194312 0.0194774 0.0195007 0.0195242 0.0195477 0.0195716 0.0195984 0.0196253 0.0196523 0.0196793 0.0196963 0.0197362 0.0197479 0.0197596 0.0197714 0.0197497 0.0197944 0.019785 0.0197632 0.0197228 0.019665 0.0196777 0.0196895 0.0196428 0.0195668 0.0194909 0.0194831 0.0194744 0.0194372 0.019354 0.0192706 0.0192521 0.0192218 0.0191763 0.0191214 0.0190375 0.019013 0.0189675 0.0189212 0.0188744 0.0188179 0.0188103 0.0187986 0.0187869 0.018775 0.0187635 0.0187378 0.0187117 0.0186854 0.0186587 0.0186235 0.0186119 0.0185851 0.0185576 0.018527 0.0184828 0.0184892 0.0184874 0.0184728 0.0184457 0.0184161 0.0184359 0.0184546 0.0184594 0.0184477 0.0184352 0.0184708 0.018501 0.0185236 0.0185429 0.0185493 0.0185983 0.0186386 0.018678 0.0187165 0.0187499 0.0187529 0.0187558 0.0187587 0.0187617 0.0187642 0.0188303 0.0188945 0.0189576 0.0190198 0.0190753 0.0191711 0.0192585 0.0193416 0.0194187 0.0194933 0.0196086 0.0197227 0.0198281 0.0199231 0.0200174 0.020152 0.0202814 0.0204063 0.0205299 0.0206447 0.0207237 0.0207985 0.0208729 0.020947 0.0210166 0.0210876 0.0211583 0.0212287 0.0212989 0.0213671 0.0215385 0.0217024 0.0218651 0.0220245 0.0221806 0.0223705 0.0225588 0.0227377 0.0229087 0.0230795 0.0232838 0.0234837 0.0236782 0.0238714 0.0240564 0.0241528 0.0242457 0.0243381 0.0244302 0.0245179 0.0246362 0.024754 0.0248715 0.0249884 0.0251045 0.0253367 0.0255599 0.0257817 0.0260003 0.0262182 0.0264601 0.0267004 0.0269361 0.0271615 0.0273873 0.0276289 0.0278655 0.0280999 0.0283329 0.0285437 0.0285562 0.0285688 0.0285813 0.0285939 0.0286067 0.0288654 0.0291219 0.029377 0.0296311 0.0298893 0.0301588 0.0304266 0.030689 0.0309506 0.0312133 0.0314873 0.0317613 0.032035 0.0323069 0.0325771 0.0326216 0.0326664 0.0327114 0.0327562 0.0328004 0.0330417 0.0332819 0.0335208 0.0337606 0.0340105 0.0343053 0.0345983 0.034889 0.0351876 0.0354882 0.0357864 0.0360885 0.0363948 0.0366992 0.0370041 0.0370478 0.0370925 0.0371377 0.0371829 0.0372275 0.0375004 0.037772 0.0380422 0.0383159 0.0386056 0.0389283 0.0392491 0.0395749 0.0399117 0.0402521 0.0405657 0.0408897 0.0412185 0.0415454 0.0418452 0.0418634 0.0418816 0.0418998 0.0419185 0.0419383 0.0422908 0.0426418 0.0429909 0.0433487 0.0437288 0.0440806 0.0444303 0.0447976 0.0451711 0.0455502 0.0457624 0.0459826 0.0462083 0.0464332 0.0466469 0.0468013 0.0469555 0.0471093 0.0472677 0.0474362 0.0478157 0.0481965 0.0485763 0.0489838 0.0494011 0.0497803 0.0501682 0.0505734 0.0509765 0.051389 0.0514324 0.0514774 0.051524 0.0515705 0.0516167 0.0519827 0.0523472 0.0527101 0.0530887 0.0535003 0.0539009 0.0542994 0.0547276 0.0551777 0.0556392 0.0558512 0.0560737 0.0563072 0.0565403 0.0567641 0.0569731 0.0571817 0.0573898 0.0576093 0.0578397 0.0582703 0.0586987 0.0591462 0.0596173 0.0601024 0.0603373 0.0605778 0.0608316 0.0610848 0.0613281 0.0615416 0.0617546 0.0619673 0.0621905 0.0624211 0.0628796 0.0633359 0.0638085 0.0642969 0.0648012 0.0649649 0.0651301 0.0653037 0.0654771 0.0656463 0.0659601 0.0662732 0.0665854 0.0669123 0.0672491 0.0677282 0.0682069 0.0687089 0.0692093 0.0697277 0.0697343 0.069741 0.069748 0.0697549 0.0697619 0.0702615 0.0707593 0.0712555 0.0717735 0.0723099 0.0725811 0.0728517 0.0731349 0.0734176 0.0736926 0.0739361 0.0741793 0.0744224 0.0746766 0.0749345 0.0754456 0.0759552 0.0764855 0.0770161 0.0775256 0.0775422 0.0775588 0.0775755 0.0775928 0.0776102 0.0781545 0.0786989 0.0792464 0.0798139 0.080396 0.0805697 0.0807433 0.0809235 0.0811047 0.0812841 0.0816699 0.0820555 0.0824436 0.0828475 0.0832558 0.083608 0.08396 0.0843259 0.0846945 0.08506 0.0852805 0.0855011 0.0857238 0.0859563 0.0861889 0.0867207 0.0872524 0.0878072 0.0883678 0.0889313 0.0889819 0.0890324 0.0890835 0.0891371 0.0891906 0.0897931 0.0903989 0.0910204 0.0916659 0.0922943 0.0924251 0.092556 0.0926934 0.0928321 0.0929721 0.0934563 0.0939408 0.0944302 0.0949466 0.0954411 0.0957981 0.0961552 0.0965332 0.0969132 0.0973138 0.0975545 0.0977953 0.0980364 0.0982947 0.0985447 0.0991333 0.0997214 0.100342 0.100978 0.101563 0.10167 0.101778 0.101893 0.102008 0.102127 0.102594 0.10306 0.103525 0.104034 0.104512 0.105023 0.105537 0.106106 0.10667 0.107205 0.107308 0.107418 0.107534 0.10765 0.107774 0.108166 0.108556 0.108943 0.10934 0.10973 0.110167 0.110599 0.111057 0.111539 0.111988 0.112373 0.112768 0.11317 0.113568 0.113964 0.114114 0.114273 0.114431 0.114589 0.114774 0.114965 0.115156 0.115346 0.115534 0.115649 0.116032 0.116351 0.116667 0.116938 0.117107 0.117476 0.117827 0.118105 0.118253 0.118398 0.118734 0.119067 0.119293 0.119419 0.119543 0.119849 0.12013 0.120317 0.120453 0.120558 0.120838 0.121039 0.121206 0.12137 0.121458 0.121699 0.121849 0.121999 0.122148 0.122254 0.122435 0.122569 0.122702 0.122835 0.122957 0.123012 0.123055 0.123099 0.123142 0.12319 0.123265 0.123339 0.123413 0.123487 0.123533 0.123665 0.12377 0.123875 0.12398 0.124018 0.124172 0.124265 0.124357 0.124448 0.124442 0.124614 0.124694 0.124774 0.124854 0.124811 0.124989 0.125063 0.125132 0.125181 0.125128 0.125291 0.125377 0.125436 0.125453 0.125395 0.125545 0.12564 0.125689 0.125679 0.125617 0.125754 0.125855 0.125895 0.125862 0.125796 0.125921 0.126026 0.126058 0.126005 0.125936 0.126048 0.126156 0.12618 0.12611 0.126039 0.12614 0.126241 0.126256 0.126182 0.126108 0.126199 0.12629 0.126298 0.126221 0.126145 0.126226 0.126307 0.126309 0.12623 0.126151 0.126223 0.126295 0.12629 0.12621 0.126129 0.126193 0.126255 0.126245 0.126163 0.126081 0.126136 0.12619 0.126175 0.126092 0.126008 0.126055 0.126102 0.126082 0.125997 0.125913 0.125952 0.125992 0.125968 0.125882 0.125796 0.125829 0.125861 0.125833 0.125747 0.12566 0.125686 0.125712 0.12568 0.125593 0.125506 0.125526 0.125546 0.12551 0.125423 0.125335 0.125349 0.125362 0.125324 0.125236 0.125148 0.125157 0.125162 0.125121 0.125036 0.124947 0.124951 0.124949 0.124905 0.124821 0.124733 0.124731 0.124723 0.124676 0.124594 0.124505 0.1245 0.124485 0.124437 0.124356 0.124267 0.124257 0.124237 0.124186 0.124107 0.124018 0.124004 0.123979 0.123927 0.123848 0.123759 0.123741 0.123712 0.123658 0.12358 0.123492 0.123471 0.123438 0.123382 0.123305 0.123216 0.123192 0.123155 0.123098 0.123022 0.122933 0.122906 0.122866 0.122808 0.122732 0.122644 0.122614 0.122571 0.122511 0.122436 0.122348 0.122315 0.12227 0.122209 0.122134 0.122047 0.122012 0.121964 0.121902 0.121827 0.121741 0.121703 0.121653 0.121591 0.121516 0.12143 0.12139 0.121339 0.121275 0.121201 0.121115 0.121073 0.12102 0.120956 0.120881 0.120796 0.120753 0.120698 0.120633 0.120559 0.120474 0.120429 0.120373 0.120307 0.120233 0.120149 0.120102 0.120045 0.119979 0.119906 0.119822 0.119774 0.119715 0.119649 0.119575 0.119492 0.119442 0.119383 0.119316 0.119243 0.11916 0.119109 0.119049 0.118982 0.118908 0.118826 0.118774 0.118713 0.118645 0.118572 0.118491 0.118437 0.118375 0.118308 0.118235 0.118154 0.118099 0.118037 0.117969 0.117896 0.117815 0.11776 0.117697 0.117629 0.117556 0.117476 0.11742 0.117357 0.117289 0.117216 0.117137 0.11708 0.117016 0.116948 0.116875 0.116797 0.116739 0.116675 0.116607 0.116535 0.116456 0.116398 0.116334 0.116266 0.116194 0.116116 0.116057 0.115993 0.115925 0.115853 0.115775 0.115716 0.115651 0.115583 0.115511 0.115435 0.115375 0.11531 0.115241 0.11517 0.115093 0.115033 0.114968 0.114899 0.114828 0.114752 0.114692 0.114626 0.114558 0.114487 0.114411 0.11435 0.114285 0.114217 0.114146 0.114071 0.114009 0.113944 0.113876 0.113805 0.113731 0.113669 0.113603 0.113535 0.113465 0.113391 0.113329 0.113263 0.113195 0.113125 0.113052 0.112989 0.112924 0.112856 0.112786 0.112713 0.11265 0.112584 0.112516 0.112446 0.112373 0.11231 0.112244 0.112177 0.112107 0.112035 0.111972 0.111906 0.111839 0.11177 0.111698 0.111635 0.11157 0.111502 0.111433 0.111362 0.111299 0.111233 0.111166 0.111097 0.111026 0.110963 0.110897 0.11083 0.110761 0.11069 0.110626 0.110561 0.110493 0.110425 0.110354 0.11029 0.110225 0.110158 0.110089 0.110019 0.109955 0.10989 0.109823 0.109754 0.109685 0.10962 0.109555 0.109488 0.10942 0.109351 0.109286 0.109221 0.109154 0.109086 0.109017 0.108953 0.108888 0.108821 0.108753 0.108685 0.108621 0.108555 0.108489 0.108422 0.108353 0.108289 0.108224 0.108157 0.10809 0.108022 0.107957 0.107892 0.107826 0.107759 0.107691 0.107627 0.107562 0.107496 0.107429 0.107361 0.107297 0.107232 0.107166 0.1071 0.107032 0.106968 0.106903 0.106837 0.106771 0.106704 0.10664 0.106575 0.10651 0.106444 0.106377 0.106313 0.106249 0.106184 0.106118 0.106052 0.105988 0.105924 0.105859 0.105794 0.105729 0.105665 0.105601 0.105537 0.105473 0.105408 0.105345 0.105281 0.105218 0.105154 0.10509 0.105027 0.104965 0.104902 0.104838 0.104775 0.104713 0.104651 0.104589 0.104527 0.104465 0.104404 0.104344 0.104283 0.104222 0.104162 0.104102 0.104043 0.103984 0.103925 0.103867 0.103809 0.103751 0.103694 0.103638 0.103582 0.103527 0.103472 0.103418 0.103365 0.103313 0.103261 0.103209 0.103159 0.10311 0.103062 0.103015 0.102967 0.102922 0.10288 0.102838 0.102796 0.102755 0.102717 0.102683 0.10265 0.102616 0.102583 0.102555 0.102532 0.10251 0.102488 0.102467 0.102453 0.102446 0.10244 0.102434 0.10243 0.102436 0.102454 0.102473 0.102493 0.102512 0.102547 0.102596 0.102646 0.102697 0.102748 0.102837 0.102962 0.103086 0.103218 0.103349 0.103472 0.103582 0.103691 0.103821 0.103952 0.104277 0.104786 0.105294 0.105882 0.106469 0.106552 0.106124 0.105695 0.105381 0.105052 0.104644 0.104181 0.103699 0.103309 0.102926 0.102555 0.1022 0.101858 0.101587 0.101288 0.100965 0.100623 0.100254 0.099944 0.0995959 0.0992252 0.0988354 0.0984087 0.0980306 0.0976278 0.0972137 0.0967903 0.0963439 0.0959375 0.095511 0.095077 0.0946366 0.0941774 0.093752 0.0933048 0.0928507 0.0923905 0.0919093 0.0914571 0.0909828 0.0905025 0.0900169 0.0895097 0.0890275 0.0885235 0.0880144 0.0875006 0.0869653 0.0864519 0.0859147 0.0853728 0.0848267 0.0842566 0.083706 0.0831289 0.0825475 0.0819624 0.0813506 0.0807556 0.0801334 0.0795078 0.0788795 0.0782237 0.077582 0.0769122 0.07624 0.0755662 0.0748637 0.074173 0.0734484 0.0727224 0.0719959 0.0712346 0.0704827 0.0696941 0.0689055 0.0681168 0.0672926 0.066472 0.0656061 0.0647402 0.0638742 0.0629651 0.0620521 0.0611065 0.0601609 0.0592153 0.0582384 0.057245 0.0561862 0.0551274 0.0540686 0.0529499 0.0518092 0.0506642 0.0495192 0.0483742 0.047224 0.0460076 0.0446566 0.0433056 0.0419546 0.0404915 0.0390094 0.0376271 0.0362447 0.0348624 0.0335676 0.0319977 0.0300504 0.0281031 0.0261558 0.0239992 0.0221054 0.0205004 0.0188954 0.0172904 0.016 0.0145538 0.0123693 0.0101848 0.00909788