# vtk DataFile Version 2.0
track0
ASCII
DATASET POLYDATA
POINTS 10931 double
-0.0205 0.001 1e-05
-0.0202034 0.000995436 1e-05
-0.0199071 0.000981948 1e-05
-0.0196114 0.000959661 1e-05
-0.0193164 0.00092834 1e-05
-0.0190172 0.000889768 1e-05
-0.0187132 0.000850948 1e-05
-0.0184092 0.000813008 1e-05
-0.0181051 0.000775931 1e-05
-0.0178006 0.000741558 1e-05
-0.0174976 0.000710065 1e-05
-0.0173929 0.000700165 1e-05
-0.0172881 0.000690628 1e-05
-0.0171833 0.00068139 1e-05
-0.0170785 0.000672416 1e-05
-0.0169361 0.000660566 1e-05
-0.0167566 0.000646228 1e-05
-0.016577 0.000632659 1e-05
-0.0163975 0.000619826 1e-05
-0.0162178 0.000607696 1e-05
-0.0160387 0.000596204 1e-05
-0.0157586 0.000578715 1e-05
-0.0154784 0.000562736 1e-05
-0.0151981 0.000548002 1e-05
-0.0149177 0.000534386 1e-05
-0.0146381 0.000521453 1e-05
-0.0143692 0.000509465 1e-05
-0.0141002 0.000498513 1e-05
-0.0138312 0.000488523 1e-05
-0.0135621 0.000479148 1e-05
-0.0132934 0.000470083 1e-05
-0.0130353 0.000461659 1e-05
-0.0127771 0.000453993 1e-05
-0.0125188 0.000447026 1e-05
-0.0122606 0.000440383 1e-05
-0.0120025 0.000433938 1e-05
-0.0117547 0.000427913 1e-05
-0.0115068 0.000422444 1e-05
-0.0112589 0.000417368 1e-05
-0.011011 0.000412518 1e-05
-0.0107632 0.000407839 1e-05
-0.0105252 0.000403433 1e-05
-0.0102873 0.000399443 1e-05
-0.0100493 0.000395666 1e-05
-0.0098113 0.000392046 1e-05
-0.00957337 0.000388574 1e-05
-0.00934491 0.000385277 1e-05
-0.00911645 0.000382293 1e-05
-0.00888798 0.00037942 1e-05
-0.00865952 0.000376659 1e-05
-0.00843108 0.000374007 1e-05
-0.00821175 0.000371482 1e-05
-0.00799242 0.000369167 1e-05
-0.00777309 0.000366931 1e-05
-0.00755375 0.000364773 1e-05
-0.00733443 0.000362691 1e-05
-0.00712387 0.000360705 1e-05
-0.0069133 0.000358861 1e-05
-0.00670273 0.000357069 1e-05
-0.00649216 0.00035533 1e-05
-0.0062816 0.000353643 1e-05
-0.00607944 0.000352027 1e-05
-0.00587729 0.000350502 1e-05
-0.00567514 0.000349008 1e-05
-0.00547298 0.000347545 1e-05
-0.00527083 0.000346112 1e-05
-0.00507675 0.00034473 1e-05
-0.00488267 0.000343397 1e-05
-0.0046886 0.000342073 1e-05
-0.00449452 0.000340758 1e-05
-0.00430044 0.00033945 1e-05
-0.00411412 0.000338174 1e-05
-0.0039278 0.000336906 1e-05
-0.00374147 0.000335616 1e-05
-0.00355515 0.000334305 1e-05
-0.00336883 0.000332974 1e-05
-0.00318995 0.000331654 1e-05
-0.00301107 0.00033028 1e-05
-0.00283219 0.000328834 1e-05
-0.00265331 0.000327318 1e-05
-0.00247443 0.000325731 1e-05
-0.00232704 0.000324353 1e-05
-0.00217964 0.00032286 1e-05
-0.00203225 0.000321246 1e-05
-0.00188486 0.000319513 1e-05
-0.00183141 0.000318841 1e-05
-0.00178828 0.000318286 1e-05
-0.00174515 0.000317722 1e-05
-0.00170203 0.000317147 1e-05
-0.0016589 0.000316563 1e-05
-0.00161577 0.00031597 1e-05
-0.0014509 0.000313651 1e-05
-0.00128604 0.000310779 1e-05
-0.00112119 0.000307328 1e-05
-0.000956351 0.000303309 1e-05
-0.000791418 0.000298729 1e-05
-0.000633135 0.000293637 1e-05
-0.0004749 0.000287213 1e-05
-0.000316732 0.000279301 1e-05
-0.000158645 0.000269913 1e-05
0 0.000259012 1e-05
0.000105677 0.000250797 1e-05
0.000211172 0.000240498 1e-05
0.000316567 0.000229224 1e-05
0.000421859 0.000217022 1e-05
0.000528387 0.000204773 1e-05
0.000634886 0.000193736 1e-05
0.000741284 0.000181762 1e-05
0.000847577 0.000168886 1e-05
0.00095387 0.000156021 1e-05
0.00106088 0.000144006 1e-05
0.00116821 0.000132945 1e-05
0.0012755 0.000121562 1e-05
0.00138277 0.000109919 1e-05
0.00149006 9.84796e-05 1e-05
0.00159752 8.75011e-05 1e-05
0.00170568 7.71138e-05 1e-05
0.00181383 6.66407e-05 1e-05
0.001922 5.63548e-05 1e-05
0.0020302 4.63047e-05 1e-05
0.00213833 3.64951e-05 1e-05
0.00222224 2.91961e-05 1e-05
0.00230615 2.19437e-05 1e-05
0.00239008 1.48156e-05 1e-05
0.00247402 7.81086e-06 1e-05
0.00256929 0 1e-05
0.0025921 -1.8324e-06 1e-05
0.00261491 -3.65595e-06 1e-05
0.00263772 -5.47067e-06 1e-05
0.00266053 -7.27658e-06 1e-05
0.00268334 -9.07316e-06 1e-05
0.00279319 -1.76489e-05 1e-05
0.00290305 -2.61027e-05 1e-05
0.00301292 -3.43923e-05 1e-05
0.0031228 -4.25197e-05 1e-05
0.00323259 -5.04784e-05 1e-05
0.00334329 -5.82058e-05 1e-05
0.00345399 -6.59782e-05 1e-05
0.0035647 -7.36263e-05 1e-05
0.00367542 -8.11513e-05 1e-05
0.00378611 -8.85374e-05 1e-05
0.00389767 -9.56954e-05 1e-05
0.00400923 -0.000102924 1e-05
0.00412079 -0.000110111 1e-05
0.00423236 -0.000117203 1e-05
0.00434393 -0.000124136 1e-05
0.00445636 -0.000130903 1e-05
0.00456879 -0.000137726 1e-05
0.00468122 -0.000144582 1e-05
0.00479365 -0.000151367 1e-05
0.00490609 -0.000157988 1e-05
0.0050194 -0.000164491 1e-05
0.0051327 -0.000171043 1e-05
0.005246 -0.000177643 1e-05
0.0053593 -0.000184195 1e-05
0.00547262 -0.000190616 1e-05
0.00558681 -0.000196955 1e-05
0.00570099 -0.00020334 1e-05
0.00581517 -0.000209771 1e-05
0.00592936 -0.000216181 1e-05
0.00604356 -0.000222489 1e-05
0.00615863 -0.000228745 1e-05
0.0062737 -0.000235046 1e-05
0.00638877 -0.000241387 1e-05
0.00650384 -0.000247719 1e-05
0.00661893 -0.000253987 1e-05
0.0067349 -0.000260226 1e-05
0.00685087 -0.000266513 1e-05
0.00696683 -0.000272824 1e-05
0.0070828 -0.000279135 1e-05
0.00719878 -0.000285426 1e-05
0.00731565 -0.000291708 1e-05
0.00743252 -0.00029804 1e-05
0.00754939 -0.000304388 1e-05
0.00766625 -0.000310745 1e-05
0.00778313 -0.000317112 1e-05
0.00790091 -0.000323492 1e-05
0.00801869 -0.000329917 1e-05
0.00813647 -0.000336361 1e-05
0.00825424 -0.000342822 1e-05
0.00837203 -0.000349302 1e-05
0.00849073 -0.000355829 1e-05
0.00860942 -0.000362395 1e-05
0.00872811 -0.000368987 1e-05
0.0088468 -0.000375605 1e-05
0.00896551 -0.00038225 1e-05
0.00897752 -0.000382925 1e-05
0.00898953 -0.0003836 1e-05
0.00900154 -0.000384276 1e-05
0.00901355 -0.000384951 1e-05
0.00902548 -0.000385624 1e-05
0.00913311 -0.000391686 1e-05
0.00924073 -0.000397777 1e-05
0.00934835 -0.000403896 1e-05
0.00945597 -0.000410042 1e-05
0.0095636 -0.000416217 1e-05
0.00968415 -0.000423152 1e-05
0.0098047 -0.000430145 1e-05
0.00992524 -0.000437181 1e-05
0.0100458 -0.000444257 1e-05
0.0101663 -0.000451377 1e-05
0.0102878 -0.000458571 1e-05
0.0104093 -0.000465845 1e-05
0.0105308 -0.000473168 1e-05
0.0106523 -0.00048054 1e-05
0.0107738 -0.000487961 1e-05
0.0108962 -0.000495459 1e-05
0.0110186 -0.000503047 1e-05
0.011141 -0.000510699 1e-05
0.0112635 -0.000518407 1e-05
0.0113859 -0.000526162 1e-05
0.0115093 -0.000534006 1e-05
0.0116327 -0.000541944 1e-05
0.0117561 -0.000549965 1e-05
0.0118794 -0.000558049 1e-05
0.0120028 -0.00056618 1e-05
0.0121272 -0.000574412 1e-05
0.0122515 -0.000582741 1e-05
0.0123758 -0.000591166 1e-05
0.0125002 -0.000599661 1e-05
0.0126245 -0.000608209 1e-05
0.0127498 -0.000616869 1e-05
0.0128751 -0.00062563 1e-05
0.0130004 -0.000634492 1e-05
0.0131257 -0.000643435 1e-05
0.0132511 -0.000652439 1e-05
0.0133774 -0.000661568 1e-05
0.0135036 -0.000670802 1e-05
0.0136299 -0.000680139 1e-05
0.0137562 -0.000689564 1e-05
0.0138825 -0.000699065 1e-05
0.0140098 -0.000708704 1e-05
0.014137 -0.000718451 1e-05
0.0142643 -0.000728299 1e-05
0.0143915 -0.000738241 1e-05
0.0145188 -0.000748279 1e-05
0.0146471 -0.000758466 1e-05
0.0147753 -0.000768767 1e-05
0.0149035 -0.000779167 1e-05
0.0150318 -0.000789668 1e-05
0.0151601 -0.000800276 1e-05
0.0152733 -0.00080972 1e-05
0.0153866 -0.000819251 1e-05
0.0154999 -0.000828863 1e-05
0.0156131 -0.000838557 1e-05
0.015716 -0.000847441 1e-05
0.0157341 -0.000849012 1e-05
0.0157521 -0.000850585 1e-05
0.0157702 -0.000852161 1e-05
0.0157883 -0.000853738 1e-05
0.0158063 -0.000855317 1e-05
0.0159366 -0.000866721 1e-05
0.0160668 -0.00087824 1e-05
0.0161971 -0.000889871 1e-05
0.0163273 -0.000901614 1e-05
0.0164576 -0.000913478 1e-05
0.0165889 -0.000925534 1e-05
0.0167201 -0.000937723 1e-05
0.0168514 -0.00095003 1e-05
0.0169826 -0.000962456 1e-05
0.0171139 -0.000975009 1e-05
0.0172462 -0.00098776 1e-05
0.0173785 -0.00100065 1e-05
0.0175108 -0.00101368 1e-05
0.017643 -0.00102683 1e-05
0.0177754 -0.00104011 1e-05
0.0179087 -0.0010536 1e-05
0.018042 -0.00106723 1e-05
0.0181753 -0.00108101 1e-05
0.0183086 -0.00109492 1e-05
0.018442 -0.00110897 1e-05
0.0185763 -0.00112324 1e-05
0.0187107 -0.00113766 1e-05
0.018845 -0.00115223 1e-05
0.0189793 -0.00116695 1e-05
0.0191137 -0.00118181 1e-05
0.0192491 -0.0011969 1e-05
0.0193845 -0.00121216 1e-05
0.0195199 -0.00122756 1e-05
0.0196552 -0.00124311 1e-05
0.0197907 -0.00125883 1e-05
0.0199272 -0.00127479 1e-05
0.0200636 -0.00129092 1e-05
0.0202 -0.0013072 1e-05
0.0203364 -0.00132363 1e-05
0.020473 -0.00134024 1e-05
0.0205257 -0.00134672 1e-05
0.0205785 -0.00135322 1e-05
0.0206313 -0.00135974 1e-05
0.020684 -0.00136629 1e-05
0.0207347 -0.00137261 1e-05
0.0208199 -0.00138325 1e-05
0.020905 -0.00139396 1e-05
0.0209902 -0.00140473 1e-05
0.0210753 -0.00141557 1e-05
0.0211606 -0.00142647 1e-05
0.0212991 -0.0014443 1e-05
0.0214377 -0.0014623 1e-05
0.0215762 -0.00148047 1e-05
0.0217147 -0.0014988 1e-05
0.0218535 -0.00151733 1e-05
0.0219931 -0.00153615 1e-05
0.0221327 -0.00155515 1e-05
0.0222724 -0.00157433 1e-05
0.0224119 -0.00159368 1e-05
0.0225517 -0.00161324 1e-05
0.0226925 -0.00163309 1e-05
0.0228332 -0.00165314 1e-05
0.0229739 -0.00167337 1e-05
0.0231146 -0.00169379 1e-05
0.0232555 -0.00171442 1e-05
0.0233973 -0.00173536 1e-05
0.0235391 -0.0017565 1e-05
0.0236809 -0.00177783 1e-05
0.0238227 -0.00179936 1e-05
0.0239647 -0.00182111 1e-05
0.0241076 -0.0018432 1e-05
0.0242505 -0.00186548 1e-05
0.0243934 -0.00188797 1e-05
0.0245362 -0.00191065 1e-05
0.0246794 -0.00193357 1e-05
0.0247095 -0.00193845 1e-05
0.0247397 -0.00194333 1e-05
0.0247698 -0.00194822 1e-05
0.0248 -0.00195312 1e-05
0.0248295 -0.00195793 1e-05
0.0249436 -0.00197653 1e-05
0.0250576 -0.00199526 1e-05
0.0251715 -0.00201411 1e-05
0.0252855 -0.00203309 1e-05
0.0253996 -0.00205223 1e-05
0.0255448 -0.00207674 1e-05
0.0256899 -0.00210147 1e-05
0.025835 -0.0021264 1e-05
0.0259801 -0.00215155 1e-05
0.0261255 -0.00217696 1e-05
0.0262718 -0.00220276 1e-05
0.0264181 -0.00222877 1e-05
0.0265643 -0.00225501 1e-05
0.0267105 -0.00228146 1e-05
0.026857 -0.00230821 1e-05
0.0270044 -0.00233534 1e-05
0.0271518 -0.0023627 1e-05
[...]
POINT_DATA 10931
 FIELD attributes 2
p 1 10931 float
-0.139376 -0.133383 -0.127564 -0.122376 -0.114686 -0.0989221 -0.0846623 -0.0704309 -0.0626033 -0.0553999 -0.049584 -0.0475644 -0.0458082 -0.0442058 -0.042605 -0.040431 -0.0374161 -0.0344209 -0.0314448 -0.0286494 -0.0265125 -0.0226211 -0.0191299 -0.0157983 -0.0131755 -0.0108495 -0.00816375 -0.00548799 -0.00337757 -0.00183923 -0.000305342 0.00155242 0.00339352 0.0047328 0.00577955 0.00677768 0.00806874 0.00918063 0.0100762 0.0108628 0.0114849 0.0123717 0.0130185 0.0135961 0.0141568 0.0145124 0.0151011 0.0154479 0.0157945 0.0161409 0.0163326 0.0166673 0.0168414 0.0170153 0.0171892 0.0172586 0.0174081 0.0174472 0.0174863 0.0175252 0.0174913 0.017496 0.0174222 0.0173485 0.0172746 0.0171482 0.017027 0.0168479 0.0166687 0.0164895 0.0162716 0.0160217 0.0157275 0.0154334 0.0151393 0.0148176 0.014404 0.0139554 0.0135068 0.0130584 0.0125944 0.0120195 0.0114221 0.0108246 0.010227 0.0100103 0.00983822 0.00966616 0.00949414 0.00932217 0.0091396 0.00797948 0.00680594 0.00563646 0.00447097 0.00317372 0.00152582 -0.000157097 -0.00183622 -0.00351144 -0.00669817 -0.0084162 -0.00913756 -0.00980456 -0.00959009 -0.00847126 -0.00685987 -0.00526982 -0.00414945 -0.00333664 -0.00250361 -0.00130025 -0.000165029 0.000423167 0.000709937 0.000821845 0.00129538 0.00161211 0.00190292 0.00219783 0.00233094 0.00254764 0.00271462 0.00288336 0.00305382 0.00324924 0.00330224 0.00335534 0.00340853 0.00346183 0.00351504 0.0036755 0.00381516 0.0039562 0.00409861 0.00420449 0.00434534 0.00438791 0.00443137 0.00447209 0.00447574 0.00456957 0.00459326 0.00458453 0.00455983 0.00452124 0.00456475 0.00459343 0.00455088 0.00448001 0.00440825 0.00440923 0.00440994 0.00435357 0.00425842 0.0041639 0.00413273 0.00410134 0.00404127 0.00393234 0.00382383 0.00377059 0.00371519 0.00364225 0.00353215 0.00341248 0.0033416 0.0032622 0.00317344 0.00307062 0.00294256 0.00285797 0.00276 0.00265951 0.00255899 0.00242808 0.00233081 0.0022225 0.00211414 0.00200571 0.00188378 0.00177575 0.00166236 0.00154889 0.00143533 0.00132061 0.00130937 0.0012977 0.00128602 0.00127434 0.00126273 0.00115967 0.00105654 0.000953328 0.000850042 0.000742917 0.000634459 0.000518682 0.000402797 0.000286804 0.000163164 6.15358e-05 -5.36859e-05 -0.000169029 -0.000284988 -0.000411041 -0.000509299 -0.000618931 -0.000732118 -0.000849529 -0.000972519 -0.00106893 -0.00116937 -0.00127875 -0.00139544 -0.00151381 -0.00160666 -0.00169975 -0.00180388 -0.00191636 -0.00202901 -0.00211705 -0.00220533 -0.00230161 -0.00240722 -0.00251302 -0.00259506 -0.00267806 -0.00276719 -0.00286264 -0.00296026 -0.00303489 -0.00311314 -0.0031942 -0.00327674 -0.00336525 -0.00343157 -0.00350323 -0.00357513 -0.00364727 -0.00372308 -0.0037746 -0.00382843 -0.00388245 -0.00393666 -0.0039861 -0.00399472 -0.00400334 -0.00401197 -0.0040206 -0.00402958 -0.00407868 -0.00412847 -0.00417852 -0.00422882 -0.00428188 -0.00431638 -0.00435426 -0.00439242 -0.0044312 -0.00447365 -0.00449484 -0.00451859 -0.00454409 -0.00457186 -0.00460105 -0.00460933 -0.00461794 -0.00463022 -0.0046452 -0.00466048 -0.00465514 -0.00465015 -0.0046474 -0.0046479 -0.00464869 -0.00462917 -0.00461063 -0.0045933 -0.00457695 -0.00456273 -0.00452855 -0.00449565 -0.0044631 -0.0044309 -0.00439981 -0.0043809 -0.00436218 -0.00434351 -0.00432489 -0.00430704 -0.00427714 -0.00424737 -0.00421775 -0.00418827 -0.00415898 -0.00409303 -0.00402849 -0.00396433 -0.00390054 -0.00383677 -0.00375392 -0.00367238 -0.00359208 -0.0035116 -0.00343121 -0.00333203 -0.00323328 -0.00313528 -0.00303797 -0.00294088 -0.0028253 -0.0027098 -0.0025936 -0.00247856 -0.00236468 -0.0022326 -0.00209919 -0.00196623 -0.00183374 -0.00170185 -0.0016707 -0.0016392 -0.00160772 -0.00157627 -0.00154544 -0.0014267 -0.00130826 -0.00119012 -0.00107226 -0.000952601 -0.000784194 -0.000617663 -0.000451613 -0.000284651 -0.000115816 6.92393e-05 0.000253781 0.00043724 0.000622652 0.000808069 0.00100934 0.0012105 0.00141442 0.00161679 0.00181841 0.00203549 0.00225588 0.00247573 0.00269503 0.00291421 0.00293431 0.00295473 0.00297514 0.00299555 0.0030158 0.00323173 0.00344721 0.00366223 0.00387679 0.00409598 0.00434937 0.00460084 0.00485126 0.00510502 0.00536065 0.00562876 0.00589629 0.00616628 0.0064359 0.00670595 0.00698815 0.00727311 0.0075594 0.00784509 0.00812985 0.00823585 0.00834358 0.00845126 0.00855887 0.00866329 0.00885664 0.00904974 0.00924258 0.00943517 0.00963262 0.00994856 0.0102619 0.0105745 0.0108909 0.0112108 0.0115389 0.0118664 0.0121969 0.0125274 0.0128589 0.0131984 0.0135416 0.0138861 0.0142299 0.0145738 0.0146453 0.0147178 0.0147905 0.0148631 0.0149346 0.0152185 0.015502 0.0157851 0.0160681 0.0163585 0.0167271 0.0170939 0.0174589 0.0178305 0.0182044 0.0185819 0.0189587 0.0193422 0.0197235 0.0201054 0.0203918 0.0206821 0.0209728 0.021263 0.0215371 0.0216412 0.0217453 0.0218494 0.0219536 0.0220604 0.0224618 0.0228614 0.0232603 0.0236622 0.0240718 0.02448 0.0248876 0.0252982 0.0257101 0.0261246 0.0265378 0.026956 0.0273752 0.0277936 0.0282146 0.0282222 0.0282299 0.0282377 0.0282454 0.0282531 0.0286718 0.0290897 0.0295068 0.0299249 0.0303541 0.0307851 0.0312153 0.0316463 0.0320817 0.0325206 0.0329537 0.0333905 0.0338297 0.0342681 0.0347096 0.0347524 0.0347956 0.0348391 0.0348825 0.0349256 0.0353259 0.0357255 0.0361244 0.0365247 0.0369357 0.0373809 0.0378251 0.0382707 0.038721 0.0391759 0.0396201 0.0400688 0.0405194 0.040969 0.0414236 0.0414272 0.0414308 0.0414344 0.041438 0.0414417 0.0418912 0.04234 0.0427878 0.0432388 0.0437056 0.0441547 0.0446029 0.0450578 0.0455179 0.0459843 0.0463325 0.0466859 0.047042 0.0473975 0.0477338 0.0478388 0.0479437 0.0480486 0.0481547 0.0482628 0.0487167 0.0491702 0.0496226 0.0500829 0.0505529 0.0510015 0.0514521 0.0519083 0.0523636 0.052827 0.0528666 0.0529065 0.0529469 0.0529872 0.0530273 0.0534425 0.0538569 0.0542705 0.0546875 0.0551141 0.0555634 0.0560119 0.0564657 0.0569185 0.0573802 0.0574536 0.0575273 0.0576016 0.0576759 0.0577493 0.0581277 0.0585054 0.0588825 0.0592626 0.0596508 0.0600964 0.0605416 0.0609904 0.0614384 0.0618964 0.0619179 0.0619395 0.0619613 0.0619831 0.0620048 0.0624316 0.0628576 0.0632827 0.0637112 0.0641496 0.0644954 0.0648411 0.0651893 0.0655371 0.0658686 0.0659702 0.0660717 0.0661732 0.0662759 0.0663792 0.0668218 0.0672636 0.0677065 0.0681523 0.0686084 0.0687729 0.0689373 0.0691033 0.0692691 0.0694316 0.06971 0.0699881 0.0702659 0.0705475 0.0708327 0.0712227 0.0716122 0.0720064 0.0724002 0.0727798 0.0728318 0.0728838 0.0729358 0.0729887 0.0730418 0.0734814 0.0739214 0.0743634 0.0748109 0.0752649 0.0754048 0.0755446 0.0756867 0.0758288 0.0759699 0.0762708 0.0765717 0.0768731 0.0771812 0.07749 0.0778076 0.0781251 0.0784495 0.0787745 0.0790996 0.079219 0.0793384 0.0794582 0.0795814 0.0797043 0.0801394 0.0805747 0.0810187 0.0814702 0.0819149 0.0819813 0.0820477 0.082116 0.0821844 0.0822533 0.0826236 0.0829941 0.0833654 0.0837502 0.0841229 0.0843952 0.0846677 0.08495 0.0852323 0.085533 0.0856773 0.0858215 0.0859658 0.0861165 0.0862648 0.0866729 0.0870806 0.0875013 0.0879348 0.0883423 0.0884887 0.0886367 0.0887903 0.0889436 0.089109 0.0893495 0.0895896 0.0898292 0.0900832 0.0903332 0.0906907 0.0910462 0.0914238 0.091824 0.0921993 0.0924004 0.0926113 0.0928296 0.093047 0.0933075 0.0934284 0.0935489 0.0936692 0.0937907 0.0939131 0.0942283 0.0945504 0.09487 0.0951943 0.0955072 0.0957904 0.0960708 0.0963542 0.0966469 0.0969299 0.0971851 0.0974415 0.0976967 0.0979499 0.0982009 0.0982843 0.0983681 0.0984517 0.0985351 0.09863 0.0987753 0.09892 0.099064 0.0992073 0.0993101 0.0995548 0.0997647 0.099973 0.100166 0.100294 0.100532 0.10075 0.100937 0.101065 0.101178 0.101397 0.101615 0.101775 0.101875 0.101974 0.102175 0.102375 0.102515 0.102602 0.102688 0.102873 0.103038 0.103159 0.103254 0.103329 0.103498 0.103626 0.103735 0.103837 0.103902 0.104055 0.104153 0.10425 0.104347 0.104412 0.104535 0.104622 0.104709 0.104796 0.104864 0.104961 0.105038 0.105115 0.105192 0.105263 0.105308 0.105346 0.105384 0.105422 0.105466 0.105495 0.105523 0.105552 0.10558 0.105602 0.105667 0.105727 0.105786 0.105845 0.105885 0.105954 0.106006 0.106057 0.106108 0.106129 0.1062 0.106244 0.106287 0.106331 0.106336 0.106407 0.106444 0.10648 0.106517 0.106509 0.106579 0.106609 0.106638 0.106668 0.106649 0.106717 0.106741 0.106764 0.106784 0.106758 0.106819 0.106842 0.10686 0.106868 0.10684 0.106892 0.106915 0.106927 0.106926 0.106895 0.10694 0.106961 0.106968 0.106959 0.106925 0.106964 0.106983 0.106985 0.106969 0.106932 0.106965 0.106981 0.10698 0.106957 0.106918 0.106945 0.106959 0.106953 0.106925 0.106884 0.106905 0.106917 0.106907 0.106874 0.106832 0.106848 0.106856 0.106843 0.106806 0.106763 0.106774 0.106779 0.106763 0.106723 0.106677 0.106684 0.106687 0.106668 0.106624 0.106578 0.10658 0.10658 0.106558 0.106512 0.106465 0.106463 0.10646 0.106436 0.106388 0.106339 0.106333 0.106328 0.106301 0.106251 0.106202 0.106193 0.106184 0.106155 0.106105 0.106054 0.106042 0.10603 0.105999 0.105948 0.105897 0.105882 0.105867 0.105834 0.105783 0.105731 0.105714 0.105696 0.105662 0.10561 0.105558 0.105538 0.105517 0.105481 0.105429 0.105377 0.105354 0.105332 0.105294 0.105242 0.105189 0.105164 0.10514 0.105101 0.105048 0.104995 0.104969 0.104942 0.104903 0.10485 0.104797 0.104768 0.10474 0.104699 0.104646 0.104593 0.104563 0.104533 0.104491 0.104438 0.104385 0.104353 0.104322 0.10428 0.104226 0.104173 0.10414 0.104107 0.104064 0.104011 0.103958 0.103924 0.10389 0.103846 0.103793 0.10374 0.103705 0.103669 0.103625 0.103572 0.103519 0.103483 0.103447 0.103402 0.103349 0.103296 0.103259 0.103222 0.103177 0.103124 0.103071 0.103033 0.102995 0.102949 0.102897 0.102844 0.102805 0.102766 0.10272 0.102667 0.102614 0.102574 0.102535 0.102489 0.102436 0.102383 0.102343 0.102303 0.102256 0.102204 0.102151 0.10211 0.102069 0.102023 0.10197 0.101918 0.101877 0.101835 0.101788 0.101736 0.101684 0.101642 0.1016 0.101553 0.101502 0.10145 0.101407 0.101365 0.101318 0.101266 0.101215 0.101172 0.101129 0.101082 0.10103 0.100979 0.100936 0.100893 0.100845 0.100794 0.100743 0.100699 0.100656 0.100609 0.100558 0.100507 0.100463 0.100419 0.100372 0.100321 0.10027 0.100226 0.100182 0.100134 0.100084 0.100033 0.0999888 0.0999444 0.0998971 0.0998467 0.0997962 0.0997516 0.099707 0.0996597 0.0996095 0.0995593 0.0995145 0.0994697 0.0994224 0.0993723 0.0993223 0.0992774 0.0992324 0.0991851 0.0991353 0.0990854 0.0990403 0.0989952 0.0989479 0.0988983 0.0988487 0.0988034 0.0987582 0.098711 0.0986615 0.0986121 0.0985668 0.0985214 0.0984742 0.0984251 0.0983758 0.0983305 0.0982851 0.098238 0.0981891 0.0981401 0.0980947 0.0980493 0.0980023 0.0979537 0.097905 0.0978596 0.0978142 0.0977674 0.0977191 0.0976708 0.0976255 0.0975802 0.0975336 0.0974858 0.0974378 0.0973928 0.0973476 0.0973013 0.097254 0.0972065 0.0971617 0.0971168 0.0970711 0.0970243 0.0969774 0.0969331 0.0968886 0.0968434 0.0967975 0.0967514 0.0967076 0.0966638 0.0966194 0.0965744 0.0965293 0.0964864 0.0964434 0.0964 0.0963563 0.0963125 0.0962707 0.0962289 0.0961869 0.0961448 0.0961027 0.0960624 0.0960222 0.0959821 0.0959422 0.0959022 0.095864 0.095826 0.0957884 0.0957512 0.0957142 0.0956787 0.0956436 0.0956094 0.0955759 0.0955427 0.095511 0.0954799 0.0954501 0.0954215 0.0953936 0.0953669 0.0953414 0.0953177 0.0952957 0.0952748 0.0952552 0.0952373 0.0952217 0.0952085 0.0951969 0.0951868 0.0951797 0.095176 0.0951756 0.0951784 0.0951829 0.0951909 0.0952018 0.0952157 0.0952334 0.0952539 0.0952867 0.0953272 0.0953744 0.095435 0.0955008 0.0955544 0.0956036 0.0956506 0.0956886 0.095741 0.0958957 0.0960626 0.0962306 0.0965052 0.0968288 0.0968795 0.0969259 0.096871 0.096584 0.0963586 0.0961052 0.0958175 0.0954824 0.0951218 0.0948156 0.0945104 0.0942121 0.0939166 0.0936206 0.0933697 0.0931186 0.0928355 0.0925175 0.0921989 0.0919171 0.0916353 0.0913125 0.0909479 0.0905826 0.0902476 0.0899125 0.0895505 0.0891609 0.0887708 0.0884057 0.0880405 0.087654 0.087246 0.0868376 0.08645 0.0860625 0.0856525 0.0852201 0.0847873 0.0843723 0.0839573 0.0835191 0.0830582 0.0825971 0.0821508 0.0817045 0.0812354 0.0807438 0.080252 0.0797725 0.079293 0.07879 0.0782639 0.0777377 0.0772215 0.0767053 0.0761642 0.0755988 0.0750333 0.0744758 0.0739182 0.0733337 0.0727231 0.0721124 0.0715075 0.0709025 0.0702689 0.0696072 0.0689455 0.0682874 0.0676293 0.0669396 0.0662192 0.0654987 0.0647795 0.0640603 0.0633076 0.0625226 0.0617375 0.0609511 0.0601647 0.0593384 0.0584734 0.0576084 0.0567391 0.0558697 0.0549628 0.0540192 0.0530757 0.0521249 0.051174 0.050165 0.0490996 0.0480342 0.0469568 0.0458795 0.0447729 0.0436378 0.0425026 0.0413531 0.0402035 0.0389294 0.0375345 0.03614 0.0347207 0.0333014 0.0319438 0.0306444 0.0293448 0.0280256 0.0266819 0.0249151 0.0227888 0.0206233 0.0184016 0.0163143 0.0147085 0.0135753 0.0125702 0.0115592 0.0100855 0.00778794 0.00496314 0.00138195