# vtk DataFile Version 2.0
track0
ASCII
DATASET POLYDATA
POINTS 10931 double
-0.0205 0.001 1e-05
-0.0202034 0.000995436 1e-05
-0.0199071 0.000981948 1e-05
-0.0196114 0.000959661 1e-05
-0.0193164 0.00092834 1e-05
-0.0190172 0.000889768 1e-05
-0.0187132 0.000850948 1e-05
-0.0184092 0.000813008 1e-05
-0.0181051 0.000775931 1e-05
-0.0178006 0.000741558 1e-05
-0.0174976 0.000710065 1e-05
-0.0173929 0.000700165 1e-05
-0.0172881 0.000690628 1e-05
-0.0171833 0.00068139 1e-05
-0.0170785 0.000672416 1e-05
-0.0169361 0.000660566 1e-05
-0.0167566 0.000646228 1e-05
-0.016577 0.000632659 1e-05
-0.0163975 0.000619826 1e-05
-0.0162178 0.000607696 1e-05
-0.0160387 0.000596204 1e-05
-0.0157586 0.000578715 1e-05
-0.0154784 0.000562736 1e-05
-0.0151981 0.000548002 1e-05
-0.0149177 0.000534386 1e-05
-0.0146381 0.000521453 1e-05
-0.0143692 0.000509465 1e-05
-0.0141002 0.000498513 1e-05
-0.0138312 0.000488523 1e-05
-0.0135621 0.000479148 1e-05
-0.0132934 0.000470083 1e-05
-0.0130353 0.000461659 1e-05
-0.0127771 0.000453993 1e-05
-0.0125188 0.000447026 1e-05
-0.0122606 0.000440383 1e-05
-0.0120025 0.000433938 1e-05
-0.0117547 0.000427913 1e-05
-0.0115068 0.000422444 1e-05
-0.0112589 0.000417368 1e-05
-0.011011 0.000412518 1e-05
-0.0107632 0.000407839 1e-05
-0.0105252 0.000403433 1e-05
-0.0102873 0.000399443 1e-05
-0.0100493 0.000395666 1e-05
-0.0098113 0.000392046 1e-05
-0.00957337 0.000388574 1e-05
-0.00934491 0.000385277 1e-05
-0.00911645 0.000382293 1e-05
-0.00888798 0.00037942 1e-05
-0.00865952 0.000376659 1e-05
-0.00843108 0.000374007 1e-05
-0.00821175 0.000371482 1e-05
-0.00799242 0.000369167 1e-05
-0.00777309 0.000366931 1e-05
-0.00755375 0.000364773 1e-05
-0.00733443 0.000362691 1e-05
-0.00712387 0.000360705 1e-05
-0.0069133 0.000358861 1e-05
-0.00670273 0.000357069 1e-05
-0.00649216 0.00035533 1e-05
-0.0062816 0.000353643 1e-05
-0.00607944 0.000352027 1e-05
-0.00587729 0.000350502 1e-05
-0.00567514 0.000349008 1e-05
-0.00547298 0.000347545 1e-05
-0.00527083 0.000346112 1e-05
-0.00507675 0.00034473 1e-05
-0.00488267 0.000343397 1e-05
-0.0046886 0.000342073 1e-05
-0.00449452 0.000340758 1e-05
-0.00430044 0.00033945 1e-05
-0.00411412 0.000338174 1e-05
-0.0039278 0.000336906 1e-05
-0.00374147 0.000335616 1e-05
-0.00355515 0.000334305 1e-05
-0.00336883 0.000332974 1e-05
-0.00318995 0.000331654 1e-05
-0.00301107 0.00033028 1e-05
-0.00283219 0.000328834 1e-05
-0.00265331 0.000327318 1e-05
-0.00247443 0.000325731 1e-05
-0.00232704 0.000324353 1e-05
-0.00217964 0.00032286 1e-05
-0.00203225 0.000321246 1e-05
-0.00188486 0.000319513 1e-05
-0.00183141 0.000318841 1e-05
-0.00178828 0.000318286 1e-05
-0.00174515 0.000317722 1e-05
-0.00170203 0.000317147 1e-05
-0.0016589 0.000316563 1e-05
-0.00161577 0.00031597 1e-05
-0.0014509 0.000313651 1e-05
-0.00128604 0.000310779 1e-05
-0.00112119 0.000307328 1e-05
-0.000956351 0.000303309 1e-05
-0.000791418 0.000298729 1e-05
-0.000633135 0.000293637 1e-05
-0.0004749 0.000287213 1e-05
-0.000316732 0.000279301 1e-05
-0.000158645 0.000269913 1e-05
0 0.000259012 1e-05
0.000105677 0.000250797 1e-05
0.000211172 0.000240498 1e-05
0.000316567 0.000229224 1e-05
0.000421859 0.000217022 1e-05
0.000528387 0.000204773 1e-05
0.000634886 0.000193736 1e-05
0.000741284 0.000181762 1e-05
0.000847577 0.000168886 1e-05
0.00095387 0.000156021 1e-05
0.00106088 0.000144006 1e-05
0.00116821 0.000132945 1e-05
0.0012755 0.000121562 1e-05
0.00138277 0.000109919 1e-05
0.00149006 9.84796e-05 1e-05
0.00159752 8.75011e-05 1e-05
0.00170568 7.71138e-05 1e-05
0.00181383 6.66407e-05 1e-05
0.001922 5.63548e-05 1e-05
0.0020302 4.63047e-05 1e-05
0.00213833 3.64951e-05 1e-05
0.00222224 2.91961e-05 1e-05
0.00230615 2.19437e-05 1e-05
0.00239008 1.48156e-05 1e-05
0.00247402 7.81086e-06 1e-05
0.00256929 0 1e-05
0.0025921 -1.8324e-06 1e-05
0.00261491 -3.65595e-06 1e-05
0.00263772 -5.47067e-06 1e-05
0.00266053 -7.27658e-06 1e-05
0.00268334 -9.07316e-06 1e-05
0.00279319 -1.76489e-05 1e-05
0.00290305 -2.61027e-05 1e-05
0.00301292 -3.43923e-05 1e-05
0.0031228 -4.25197e-05 1e-05
0.00323259 -5.04784e-05 1e-05
0.00334329 -5.82058e-05 1e-05
0.00345399 -6.59782e-05 1e-05
0.0035647 -7.36263e-05 1e-05
0.00367542 -8.11513e-05 1e-05
0.00378611 -8.85374e-05 1e-05
0.00389767 -9.56954e-05 1e-05
0.00400923 -0.000102924 1e-05
0.00412079 -0.000110111 1e-05
0.00423236 -0.000117203 1e-05
0.00434393 -0.000124136 1e-05
0.00445636 -0.000130903 1e-05
0.00456879 -0.000137726 1e-05
0.00468122 -0.000144582 1e-05
0.00479365 -0.000151367 1e-05
0.00490609 -0.000157988 1e-05
0.0050194 -0.000164491 1e-05
0.0051327 -0.000171043 1e-05
0.005246 -0.000177643 1e-05
0.0053593 -0.000184195 1e-05
0.00547262 -0.000190616 1e-05
0.00558681 -0.000196955 1e-05
0.00570099 -0.00020334 1e-05
0.00581517 -0.000209771 1e-05
0.00592936 -0.000216181 1e-05
0.00604356 -0.000222489 1e-05
0.00615863 -0.000228745 1e-05
0.0062737 -0.000235046 1e-05
0.00638877 -0.000241387 1e-05
0.00650384 -0.000247719 1e-05
0.00661893 -0.000253987 1e-05
0.0067349 -0.000260226 1e-05
0.00685087 -0.000266513 1e-05
0.00696683 -0.000272824 1e-05
0.0070828 -0.000279135 1e-05
0.00719878 -0.000285426 1e-05
0.00731565 -0.000291708 1e-05
0.00743252 -0.00029804 1e-05
0.00754939 -0.000304388 1e-05
0.00766625 -0.000310745 1e-05
0.00778313 -0.000317112 1e-05
0.00790091 -0.000323492 1e-05
0.00801869 -0.000329917 1e-05
0.00813647 -0.000336361 1e-05
0.00825424 -0.000342822 1e-05
0.00837203 -0.000349302 1e-05
0.00849073 -0.000355829 1e-05
0.00860942 -0.000362395 1e-05
0.00872811 -0.000368987 1e-05
0.0088468 -0.000375605 1e-05
0.00896551 -0.00038225 1e-05
0.00897752 -0.000382925 1e-05
0.00898953 -0.0003836 1e-05
0.00900154 -0.000384276 1e-05
0.00901355 -0.000384951 1e-05
0.00902548 -0.000385624 1e-05
0.00913311 -0.000391686 1e-05
0.00924073 -0.000397777 1e-05
0.00934835 -0.000403896 1e-05
0.00945597 -0.000410042 1e-05
0.0095636 -0.000416217 1e-05
0.00968415 -0.000423152 1e-05
0.0098047 -0.000430145 1e-05
0.00992524 -0.000437181 1e-05
0.0100458 -0.000444257 1e-05
0.0101663 -0.000451377 1e-05
0.0102878 -0.000458571 1e-05
0.0104093 -0.000465845 1e-05
0.0105308 -0.000473168 1e-05
0.0106523 -0.00048054 1e-05
0.0107738 -0.000487961 1e-05
0.0108962 -0.000495459 1e-05
0.0110186 -0.000503047 1e-05
0.011141 -0.000510699 1e-05
0.0112635 -0.000518407 1e-05
0.0113859 -0.000526162 1e-05
0.0115093 -0.000534006 1e-05
0.0116327 -0.000541944 1e-05
0.0117561 -0.000549965 1e-05
0.0118794 -0.000558049 1e-05
0.0120028 -0.00056618 1e-05
0.0121272 -0.000574412 1e-05
0.0122515 -0.000582741 1e-05
0.0123758 -0.000591166 1e-05
0.0125002 -0.000599661 1e-05
0.0126245 -0.000608209 1e-05
0.0127498 -0.000616869 1e-05
0.0128751 -0.00062563 1e-05
0.0130004 -0.000634492 1e-05
0.0131257 -0.000643435 1e-05
0.0132511 -0.000652439 1e-05
0.0133774 -0.000661568 1e-05
0.0135036 -0.000670802 1e-05
0.0136299 -0.000680139 1e-05
0.0137562 -0.000689564 1e-05
0.0138825 -0.000699065 1e-05
0.0140098 -0.000708704 1e-05
0.014137 -0.000718451 1e-05
0.0142643 -0.000728299 1e-05
0.0143915 -0.000738241 1e-05
0.0145188 -0.000748279 1e-05
0.0146471 -0.000758466 1e-05
0.0147753 -0.000768767 1e-05
0.0149035 -0.000779167 1e-05
0.0150318 -0.000789668 1e-05
0.0151601 -0.000800276 1e-05
0.0152733 -0.00080972 1e-05
0.0153866 -0.000819251 1e-05
0.0154999 -0.000828863 1e-05
0.0156131 -0.000838557 1e-05
0.015716 -0.000847441 1e-05
0.0157341 -0.000849012 1e-05
0.0157521 -0.000850585 1e-05
0.0157702 -0.000852161 1e-05
0.0157883 -0.000853738 1e-05
0.0158063 -0.000855317 1e-05
0.0159366 -0.000866721 1e-05
0.0160668 -0.00087824 1e-05
0.0161971 -0.000889871 1e-05
0.0163273 -0.000901614 1e-05
0.0164576 -0.000913478 1e-05
0.0165889 -0.000925534 1e-05
0.0167201 -0.000937723 1e-05
0.0168514 -0.00095003 1e-05
0.0169826 -0.000962456 1e-05
0.0171139 -0.000975009 1e-05
0.0172462 -0.00098776 1e-05
0.0173785 -0.00100065 1e-05
0.0175108 -0.00101368 1e-05
0.017643 -0.00102683 1e-05
0.0177754 -0.00104011 1e-05
0.0179087 -0.0010536 1e-05
0.018042 -0.00106723 1e-05
0.0181753 -0.00108101 1e-05
0.0183086 -0.00109492 1e-05
0.018442 -0.00110897 1e-05
0.0185763 -0.00112324 1e-05
0.0187107 -0.00113766 1e-05
0.018845 -0.00115223 1e-05
0.0189793 -0.00116695 1e-05
0.0191137 -0.00118181 1e-05
0.0192491 -0.0011969 1e-05
0.0193845 -0.00121216 1e-05
0.0195199 -0.00122756 1e-05
0.0196552 -0.00124311 1e-05
0.0197907 -0.00125883 1e-05
0.0199272 -0.00127479 1e-05
0.0200636 -0.00129092 1e-05
0.0202 -0.0013072 1e-05
0.0203364 -0.00132363 1e-05
0.020473 -0.00134024 1e-05
0.0205257 -0.00134672 1e-05
0.0205785 -0.00135322 1e-05
0.0206313 -0.00135974 1e-05
0.020684 -0.00136629 1e-05
0.0207347 -0.00137261 1e-05
0.0208199 -0.00138325 1e-05
0.020905 -0.00139396 1e-05
0.0209902 -0.00140473 1e-05
0.0210753 -0.00141557 1e-05
0.0211606 -0.00142647 1e-05
0.0212991 -0.0014443 1e-05
0.0214377 -0.0014623 1e-05
0.0215762 -0.00148047 1e-05
0.0217147 -0.0014988 1e-05
0.0218535 -0.00151733 1e-05
0.0219931 -0.00153615 1e-05
0.0221327 -0.00155515 1e-05
0.0222724 -0.00157433 1e-05
0.0224119 -0.00159368 1e-05
0.0225517 -0.00161324 1e-05
0.0226925 -0.00163309 1e-05
0.0228332 -0.00165314 1e-05
0.0229739 -0.00167337 1e-05
0.0231146 -0.00169379 1e-05
0.0232555 -0.00171442 1e-05
0.0233973 -0.00173536 1e-05
0.0235391 -0.0017565 1e-05
0.0236809 -0.00177783 1e-05
0.0238227 -0.00179936 1e-05
0.0239647 -0.00182111 1e-05
0.0241076 -0.0018432 1e-05
0.0242505 -0.00186548 1e-05
0.0243934 -0.00188797 1e-05
0.0245362 -0.00191065 1e-05
0.0246794 -0.00193357 1e-05
0.0247095 -0.00193845 1e-05
0.0247397 -0.00194333 1e-05
0.0247698 -0.00194822 1e-05
0.0248 -0.00195312 1e-05
0.0248295 -0.00195793 1e-05
0.0249436 -0.00197653 1e-05
0.0250576 -0.00199526 1e-05
0.0251715 -0.00201411 1e-05
0.0252855 -0.00203309 1e-05
0.0253996 -0.00205223 1e-05
0.0255448 -0.00207674 1e-05
0.0256899 -0.00210147 1e-05
0.025835 -0.0021264 1e-05
0.0259801 -0.00215155 1e-05
0.0261255 -0.00217696 1e-05
0.0262718 -0.00220276 1e-05
0.0264181 -0.00222877 1e-05
0.0265643 -0.00225501 1e-05
0.0267105 -0.00228146 1e-05
0.026857 -0.00230821 1e-05
0.0270044 -0.00233534 1e-05
0.0271518 -0.0023627 1e-05
[...]
POINT_DATA 10931
 FIELD attributes 1
U 3 10931 float
0.15447 	-0.00237729 	0 0.159766 	-0.00727281 	0 0.163907 	-0.0123513 	0 0.167014 	-0.0177356 	0 0.168985 	-0.0217801 	0 0.170009 	-0.0217158 	0 0.170993 	-0.0213379 	0 0.172083 	-0.0209784 	0 0.175656 	-0.0198317 	0 0.179743 	-0.0186785 	0 0.184548 	-0.017448 	0 0.186518 	-0.0169829 	0 0.188174 	-0.0165906 	0 0.189659 	-0.0162423 	0 0.191178 	-0.0158995 	0 0.193287 	-0.0154408 	0 0.196174 	-0.0148268 	0 0.19915 	-0.0142313 	0 0.202213 	-0.0136536 	0 0.20476 	-0.0131358 	0 0.205041 	-0.012802 	0 0.211371 	-0.0120536 	0 0.216156 	-0.0113629 	0 0.220468 	-0.0107078 	0 0.22142 	-0.0102401 	0 0.22104 	-0.00985316 	0 0.227873 	-0.00927891 	0 0.234898 	-0.0087234 	0 0.237856 	-0.00828867 	0 0.2366 	-0.00798184 	0 0.235405 	-0.00768023 	0 0.242529 	-0.00720059 	0 0.249687 	-0.00673703 	0 0.251433 	-0.00646764 	0 0.249913 	-0.00624194 	0 0.247899 	-0.00602543 	0 0.255215 	-0.00563083 	0 0.259954 	-0.00532293 	0 0.26149 	-0.00511662 	0 0.261329 	-0.00493442 	0 0.258553 	-0.00478669 	0 0.266026 	-0.00446072 	0 0.268715 	-0.00426489 	0 0.270056 	-0.0041075 	0 0.271077 	-0.00395623 	0 0.267612 	-0.00386125 	0 0.27505 	-0.00359321 	0 0.276183 	-0.0034723 	0 0.277353 	-0.00335246 	0 0.278558 	-0.00323368 	0 0.275329 	-0.0031697 	0 0.281567 	-0.00297139 	0 0.282567 	-0.00288085 	0 0.283593 	-0.00279098 	0 0.284646 	-0.00270178 	0 0.281953 	-0.00265913 	0 0.287189 	-0.0025153 	0 0.288084 	-0.00245095 	0 0.288997 	-0.00238702 	0 0.289929 	-0.00232349 	0 0.287728 	-0.0023002 	0 0.292121 	-0.00220314 	0 0.292942 	-0.00216469 	0 0.293774 	-0.00212646 	0 0.294617 	-0.00208845 	0 0.292889 	-0.0020859 	0 0.296563 	-0.00203586 	0 0.297345 	-0.00202848 	0 0.298131 	-0.00202116 	0 0.29892 	-0.00201389 	0 0.297684 	-0.00203832 	0 0.300729 	-0.00204779 	0 0.301526 	-0.00208714 	0 0.302314 	-0.00212635 	0 0.303095 	-0.0021654 	0 0.302429 	-0.00223217 	0 0.304907 	-0.00234188 	0 0.305793 	-0.00247119 	0 0.30665 	-0.00259995 	0 0.307479 	-0.00272816 	0 0.307556 	-0.00287537 	0 0.309365 	-0.00313307 	0 0.310364 	-0.00339801 	0 0.311313 	-0.00366181 	0 0.312215 	-0.00392449 	0 0.312524 	-0.00401935 	0 0.312748 	-0.00409324 	0 0.312967 	-0.00416699 	0 0.313182 	-0.00424061 	0 0.313393 	-0.00431409 	0 0.312032 	-0.00438756 	0 0.315143 	-0.00549012 	0 0.316456 	-0.00662477 	0 0.31751 	-0.00774134 	0 0.318309 	-0.00884016 	0 0.307183 	-0.009882 	0 0.320374 	-0.0130054 	4.52614e-23 0.321167 	-0.0160672 	1.12542e-22 0.321302 	-0.0190797 	1.78042e-22 0.320785 	-0.022043 	2.41774e-22 0.281079 	-0.0218487 	3.03992e-22 0.32287 	-0.0315197 	1.00939e-21 0.325186 	-0.0347871 	1.16517e-21 0.323705 	-0.0375124 	1.27957e-21 0.31726 	-0.0364796 	1.02182e-21 0.306231 	-0.0317374 	3.88989e-22 0.311288 	-0.0350312 	2.45467e-22 0.315925 	-0.0382708 	1.02339e-22 0.313239 	-0.0379117 	3.38952e-23 0.306205 	-0.0343801 	3.17157e-24 0.299449 	-0.0308609 	-2.67814e-23 0.302864 	-0.03213 	-1.00363e-22 0.305972 	-0.0332112 	-1.63696e-22 0.307309 	-0.0327676 	-1.35804e-22 0.305501 	-0.0312104 	-6.66615e-23 0.301907 	-0.0289937 	2.76191e-23 0.30453 	-0.0294895 	-1.50198e-22 0.306062 	-0.0291029 	-1.60206e-22 0.307449 	-0.028559 	-1.39038e-22 0.308906 	-0.0280246 	-1.18269e-22 0.308047 	-0.0267951 	-4.42624e-23 0.309277 	-0.0267288 	4.41001e-23 0.31012 	-0.0263391 	4.12481e-23 0.310993 	-0.0259531 	3.86807e-23 0.311896 	-0.0255708 	3.63957e-23 0.312953 	-0.0251413 	3.41204e-23 0.313277 	-0.0250449 	3.87155e-23 0.313602 	-0.0249487 	4.33064e-23 0.313929 	-0.0248528 	4.78932e-23 0.314258 	-0.0247571 	5.24759e-23 0.314537 	-0.0245553 	5.32662e-23 0.316056 	-0.0243207 	3.54655e-23 0.317291 	-0.0239391 	1.91966e-23 0.318556 	-0.0235613 	2.94291e-24 0.319849 	-0.0231872 	-1.32957e-23 0.320823 	-0.0223941 	-2.68349e-23 0.323363 	-0.0227038 	-4.59873e-24 0.324493 	-0.0224168 	1.86601e-23 0.325643 	-0.0221322 	4.19295e-23 0.326761 	-0.0218046 	6.34337e-23 0.327366 	-0.021004 	6.63303e-23 0.329971 	-0.0213808 	6.23645e-23 0.331513 	-0.021355 	5.24528e-23 0.332567 	-0.0211418 	3.97681e-23 0.333339 	-0.020714 	2.93524e-23 0.333868 	-0.0200946 	2.09917e-23 0.33617 	-0.0204 	2.49334e-23 0.338241 	-0.0206266 	2.50694e-23 0.339219 	-0.0204712 	6.54441e-24 0.339713 	-0.0200061 	-1.40383e-23 0.340198 	-0.0195246 	-3.47787e-23 0.342259 	-0.0197908 	-4.25762e-23 0.344313 	-0.0200561 	-5.03654e-23 0.345417 	-0.0199739 	-4.66515e-23 0.345853 	-0.019598 	-3.30704e-23 0.346305 	-0.0192244 	-1.95008e-23 0.348169 	-0.0194696 	1.04775e-24 0.350027 	-0.019714 	2.16005e-23 0.351321 	-0.0197217 	2.29263e-23 0.351732 	-0.0194315 	8.06543e-24 0.352154 	-0.0191429 	-6.79899e-24 0.353851 	-0.0193768 	7.80209e-24 0.355499 	-0.0195903 	2.08811e-23 0.356764 	-0.0196293 	2.04866e-23 0.357335 	-0.019464 	2.41544e-24 0.35773 	-0.0192456 	-2.03243e-23 0.359283 	-0.019476 	-2.51794e-23 0.360643 	-0.0196267 	-2.69718e-23 0.361793 	-0.0196892 	-2.5365e-23 0.362662 	-0.0196727 	-2.03416e-23 0.363029 	-0.0195143 	-9.17725e-24 0.364456 	-0.0197466 	2.0345e-24 0.365563 	-0.0198557 	3.76905e-24 0.36661 	-0.0199417 	3.73948e-24 0.367657 	-0.0200276 	3.70951e-24 0.368048 	-0.019936 	2.3974e-25 0.369286 	-0.0201467 	1.66669e-24 0.370243 	-0.0202558 	9.26065e-25 0.371198 	-0.0203647 	1.85022e-25 0.372151 	-0.0204733 	-5.56442e-25 0.372788 	-0.0204994 	-1.18752e-24 0.373803 	-0.0206784 	-7.10436e-25 0.374675 	-0.0208095 	-1.53371e-24 0.375545 	-0.0209403 	-2.35867e-24 0.376413 	-0.0210708 	-3.18531e-24 0.377251 	-0.0211942 	-4.12015e-24 0.377343 	-0.0212135 	-3.87077e-24 0.377423 	-0.0212288 	-3.40699e-24 0.377503 	-0.0212442 	-2.94321e-24 0.377583 	-0.0212595 	-2.47941e-24 0.377663 	-0.0212748 	-2.01839e-24 0.378427 	-0.0214168 	1.7126e-24 0.379189 	-0.0215585 	5.44246e-24 0.379949 	-0.0216998 	9.17119e-24 0.380707 	-0.0218409 	1.28988e-23 0.381361 	-0.021939 	2.0579e-23 0.382342 	-0.0221815 	2.40415e-23 0.383115 	-0.0223598 	2.33623e-23 0.383884 	-0.0225377 	2.26931e-23 0.384649 	-0.0227151 	2.2034e-23 0.3852 	-0.0228097 	1.49034e-23 0.386318 	-0.0231322 	-8.05479e-24 0.387018 	-0.0233307 	-1.88585e-23 0.387715 	-0.0235287 	-2.96647e-23 0.388393 	-0.023721 	-3.90291e-23 0.388774 	-0.0238077 	-1.94147e-23 0.389902 	-0.0241676 	-8.97993e-23 0.390648 	-0.0244187 	-1.04845e-22 0.391275 	-0.0246362 	-1.03042e-22 0.391767 	-0.0248099 	-6.76963e-23 0.392085 	-0.0249259 	1.21988e-23 0.39312 	-0.0252923 	2.90551e-23 0.394007 	-0.0256189 	4.53412e-23 0.394566 	-0.0258553 	6.02947e-23 0.394876 	-0.0260152 	5.98711e-23 0.395131 	-0.0261586 	5.61934e-23 0.396076 	-0.0265325 	1.06673e-22 0.397015 	-0.0269055 	1.57152e-22 0.39752 	-0.027162 	1.4926e-22 0.397718 	-0.0273316 	7.66498e-23 0.397912 	-0.0275009 	4.00268e-24 0.398771 	-0.0278831 	-9.68053e-24 0.399623 	-0.0282643 	-2.33734e-23 0.400155 	-0.0285608 	-3.78691e-23 0.400292 	-0.0287547 	-5.30133e-23 0.400426 	-0.0289483 	-6.8171e-23 0.401202 	-0.0293391 	-6.97191e-23 0.401941 	-0.0297213 	-6.98401e-23 0.402423 	-0.030039 	-5.78718e-23 0.402598 	-0.0302802 	-4.03116e-23 0.402672 	-0.0304968 	-2.09569e-23 0.403366 	-0.0308964 	1.14291e-23 0.403897 	-0.0312577 	2.79244e-23 0.404302 	-0.0315897 	3.23528e-23 0.404633 	-0.0319043 	3.21955e-23 0.404647 	-0.0321425 	1.12301e-23 0.405248 	-0.0325481 	-3.44269e-23 0.405584 	-0.0328948 	-2.55961e-23 0.405913 	-0.0332406 	-1.67093e-23 0.406236 	-0.0335856 	-7.76647e-24 0.406349 	-0.0338816 	2.05541e-23 0.406704 	-0.0342231 	1.87203e-24 0.406934 	-0.0345384 	7.5225e-24 0.407158 	-0.0348531 	1.3228e-23 0.407378 	-0.0351672 	1.89886e-23 0.407572 	-0.035452 	2.42735e-23 0.407614 	-0.0355026 	2.50403e-23 0.407655 	-0.0355532 	2.58084e-23 0.407696 	-0.0356038 	2.65776e-23 0.407738 	-0.0356543 	2.73479e-23 0.40776 	-0.0356999 	2.35872e-23 0.408041 	-0.0360858 	2.88721e-23 0.408286 	-0.0364625 	3.86216e-23 0.408524 	-0.0368385 	4.82944e-23 0.408756 	-0.0372136 	5.78906e-23 0.408829 	-0.0375501 	6.00452e-23 0.409254 	-0.0380046 	1.05754e-22 0.409426 	-0.0383927 	1.05977e-22 0.409592 	-0.0387801 	1.06193e-22 0.409726 	-0.0391609 	1.00796e-22 0.409613 	-0.0394844 	4.15337e-23 0.410052 	-0.0399694 	1.51936e-22 0.410283 	-0.040402 	1.83951e-22 0.410377 	-0.0408 	1.64543e-22 0.410295 	-0.0411596 	8.94188e-23 0.410111 	-0.0414977 	-1.70652e-23 0.410467 	-0.0419871 	-1.10866e-22 0.410814 	-0.0424756 	-2.04638e-22 0.410821 	-0.0428816 	-1.9927e-22 0.410573 	-0.0432333 	-9.36035e-23 0.410319 	-0.0435847 	1.21837e-23 0.410593 	-0.044078 	-2.93081e-23 0.410859 	-0.0445704 	-7.07743e-23 0.410878 	-0.0450129 	-5.04633e-23 0.41056 	-0.0453765 	2.1724e-23 0.410235 	-0.0457397 	9.40256e-23 0.410428 	-0.0462362 	1.29719e-22 0.410503 	-0.0467111 	1.38558e-22 0.41042 	-0.0471569 	1.10786e-22 0.410253 	-0.0475833 	7.42309e-23 0.409857 	-0.0479571 	1.27124e-23 0.409952 	-0.0484529 	-3.67951e-23 0.409798 	-0.0489047 	-2.53593e-23 0.409636 	-0.0493555 	-1.38165e-23 0.409466 	-0.0498054 	-2.16661e-24 0.409183 	-0.0502309 	2.78148e-23 0.409165 	-0.0504177 	9.45655e-24 0.409077 	-0.0505927 	8.72454e-25 0.408989 	-0.0507676 	-7.70121e-24 0.408899 	-0.0509423 	-1.62644e-23 0.408812 	-0.0511102 	-2.44869e-23 0.408706 	-0.0513956 	-2.83827e-23 0.408597 	-0.0516807 	-3.21907e-23 0.408485 	-0.0519654 	-3.59106e-23 0.40837 	-0.0522499 	-3.95426e-23 0.408147 	-0.0525124 	-9.33048e-23 0.408072 	-0.0530184 	-2.14722e-22 0.407831 	-0.0534826 	-2.68962e-22 0.407583 	-0.053946 	-3.23347e-22 0.407308 	-0.0544049 	-3.64524e-22 0.406782 	-0.0548155 	-2.33915e-22 0.406753 	-0.0553531 	-4.81689e-22 0.40657 	-0.0558531 	-6.04458e-22 0.406246 	-0.0563182 	-6.11e-22 0.405713 	-0.0567443 	-4.39713e-22 0.405111 	-0.0571588 	-2.1456e-22 0.404998 	-0.0576932 	-2.96035e-22 0.404875 	-0.0582266 	-3.77549e-22 0.404479 	-0.0587017 	-3.49606e-22 0.40381 	-0.0591187 	-2.11272e-22 0.403132 	-0.0595357 	-7.27241e-23 0.402936 	-0.0600659 	-9.13732e-23 0.402667 	-0.0605841 	-9.60881e-23 0.402194 	-0.0610666 	-5.73394e-23 0.4016 	-0.0615211 	-1.46634e-23 0.400846 	-0.0619392 	3.33883e-23 0.400561 	-0.0624633 	3.78001e-23 0.400015 	-0.062943 	4.96127e-23 0.39946 	-0.0634217 	6.14784e-23 0.398894 	-0.0638996 	7.33971e-23 0.398253 	-0.0643621 	8.69933e-23 0.398168 	-0.0644692 	8.18066e-23 0.398038 	-0.0645687 	8.05596e-23 0.397908 	-0.0646682 	7.93161e-23 0.397777 	-0.0647676 	7.80761e-23 0.397649 	-0.0648651 	7.68635e-23 0.397216 	-0.0652467 	7.67348e-23 0.396777 	-0.0656278 	7.66889e-23 0.396333 	-0.0660085 	7.67259e-23 0.395883 	-0.0663886 	7.68461e-23 0.395266 	-0.0667369 	2.6786e-23 0.39488 	-0.0672741 	-8.27076e-23 0.394255 	-0.0677502 	-1.13167e-22 0.393621 	-0.0682255 	-1.43796e-22 0.392868 	-0.0686788 	-1.18807e-22 0.391953 	-0.0691029 	-1.63349e-23 0.391508 	-0.0696363 	-2.68476e-24 0.391051 	-0.0701687 	1.09834e-23 0.390305 	-0.0706324 	1.66113e-23 0.389323 	-0.0710501 	6.95731e-24 0.388329 	-0.0714681 	-2.72105e-24 0.387799 	-0.07199 	-3.46256e-23 0.38723 	-0.0725056 	-6.33837e-23 0.386421 	-0.072977 	-6.71728e-23 0.385468 	-0.0734141 	-5.36949e-23 0.384395 	-0.0738247 	-2.63088e-23 0.383781 	-0.0743342 	-5.2319e-23 0.382899 	-0.0747949 	-4.27152e-23 0.382006 	-0.0752547 	-3.30898e-23 0.381103 	-0.0757136 	-2.34425e-23 0.380155 	-0.0761656 	-1.10247e-23 0.380093 	-0.0762082 	-1.47658e-23 0.380011 	-0.0762469 	-1.43292e-23 0.379928 	-0.0762857 	-1.38923e-23 0.379846 	-0.0763244 	-1.34549e-23 0.379763 	-0.0763629 	-1.30204e-23 0.378972 	-0.076781 	-7.81039e-24 0.378171 	-0.0771985 	-2.55145e-24 0.377363 	-0.0776153 	2.75672e-24 0.376546 	-0.0780315 	8.11438e-24 0.375511 	-0.0784031 	-1.24686e-23 0.374802 	-0.0789106 	-5.16824e-23 0.373913 	-0.079371 	-6.77591e-23 0.372951 	-0.0798138 	-7.54533e-23 0.371795 	-0.0802159 	-5.63118e-23 0.370553 	-0.080603 	-2.66129e-23 0.36976 	-0.0810932 	-4.18841e-23 0.368956 	-0.0815825 	-5.71583e-23 0.36792 	-0.0820202 	-2.1223e-23 0.366613 	-0.0823923 	5.41523e-23 0.36529 	-0.0827652 	1.29837e-22 0.364414 	-0.083237 	4.08474e-22 0.363365 	-0.0836732 	5.13048e-22 0.362211 	-0.0840882 	5.16624e-22 0.361045 	-0.0845023 	5.19781e-22 0.359728 	-0.084882 	3.70643e-22 0.359383 	-0.0850444 	2.95812e-22 0.358949 	-0.0851873 	2.98503e-22 0.35851 	-0.0853297 	3.02794e-22 0.35807 	-0.085472 	3.07174e-22 0.357642 	-0.0856101 	3.11512e-22 0.356913 	-0.0858724 	3.44094e-22 0.356179 	-0.0861344 	3.77081e-22 0.355441 	-0.0863961 	4.10475e-22 0.354698 	-0.0866575 	4.44278e-22 0.353795 	-0.0868794 	1.39094e-22 0.352819 	-0.0873315 	-5.99681e-23 0.351623 	-0.0877215 	-1.2359e-22 0.350409 	-0.0881091 	-1.83616e-22 0.349033 	-0.0884566 	-7.63374e-23 0.347544 	-0.0887801 	1.37253e-22 0.346485 	-0.0892092 	1.11371e-22 0.345414 	-0.0896375 	8.57042e-23 0.34412 	-0.0900082 	8.03281e-23 0.34257 	-0.0903104 	1.2513e-22 0.341 	-0.0906134 	1.70148e-22 0.339858 	-0.091019 	-1.17221e-22 0.338535 	-0.091379 	-2.58534e-22 0.337123 	-0.0917182 	-3.34226e-22 0.335698 	-0.0920564 	-4.09478e-22 0.334171 	-0.0923724 	-4.34127e-22 0.333921 	-0.0924504 	-5.26899e-22 0.333625 	-0.0925164 	-5.38769e-22 0.333324 	-0.0925809 	-5.41223e-22 0.333022 	-0.0926455 	-5.43642e-22 0.332725 	-0.092709 	-5.4599e-22 0.331633 	-0.0929708 	-5.99508e-22 0.330533 	-0.0932322 	-6.52784e-22 0.329425 	-0.0934931 	-7.05814e-22 0.328302 	-0.0937509 	-7.53307e-22 0.326992 	-0.0939522 	-6.82567e-22 0.325752 	-0.0943199 	-8.29514e-22 0.324392 	-0.0946523 	-7.6913e-22 0.322931 	-0.0949554 	-5.38244e-22 0.321252 	-0.0951898 	-2.3856e-22 0.319528 	-0.0954174 	6.9764e-23 0.318205 	-0.0957575 	5.62391e-22 0.316868 	-0.0960959 	1.04825e-21 0.315292 	-0.0963581 	8.63131e-22 0.313594 	-0.0965851 	4.77424e-22 0.31179 	-0.0967869 	-6.1953e-23 0.310745 	-0.0970189 	-8.42021e-22 0.309551 	-0.0972019 	-7.52186e-22 0.308323 	-0.0973758 	-5.07367e-22 0.307088 	-0.0975492 	-2.61513e-22 0.305912 	-0.0977126 	-2.80953e-23 0.305496 	-0.0977784 	7.45721e-23 0.305079 	-0.0978441 	1.77399e-22 0.304661 	-0.0979098 	2.80385e-22 0.304236 	-0.0979731 	3.475e-22 0.303762 	-0.0980156 	9.71155e-23 0.302264 	-0.0982722 	-6.56474e-22 0.300657 	-0.0984931 	-1.01495e-21 0.299038 	-0.0987132 	-1.37543e-21 0.297322 	-0.0988961 	-1.23264e-21 0.295462 	-0.0990272 	-3.66956e-22 0.293967 	-0.0992838 	-4.94526e-22 0.292457 	-0.0995392 	-6.22071e-22 0.290756 	-0.0997199 	-4.24709e-22 0.288844 	-0.0998212 	1.04817e-22 0.286904 	-0.0999224 	6.37958e-22 0.285326 	-0.100148 	8.22261e-22 0.283582 	-0.100304 	9.14608e-22 0.281776 	-0.100436 	9.77275e-22 0.279954 	-0.100568 	1.03949e-21 0.278093 	-0.100697 	1.09879e-21 0.278063 	-0.100701 	1.11032e-21 0.27803 	-0.100703 	1.11029e-21 0.277996 	-0.100705 	1.10653e-21 0.277962 	-0.100707 	1.10276e-21 0.277928 	-0.100709 	1.09901e-21 0.276223 	-0.100827 	8.1187e-22 0.274505 	-0.100944 	5.22625e-22 0.272773 	-0.10106 	2.31237e-22 0.271001 	-0.101158 	1.0363e-22 0.269066 	-0.101172 	7.91957e-22 0.267408 	-0.101327 	2.30576e-21 0.265734 	-0.101481 	3.81742e-21 0.263869 	-0.101546 	3.96605e-21 0.261852 	-0.101527 	2.95294e-21 0.2598 	-0.101508 	1.93167e-21 0.258059 	-0.101629 	2.79122e-21 0.256205 	-0.101686 	2.85864e-21 0.254272 	-0.1017 	2.39425e-21 0.252322 	-0.101712 	1.92845e-21 0.250296 	-0.101706 	1.27022e-21 0.250116 	-0.101714 	1.26828e-21 0.249925 	-0.101716 	1.27758e-21 0.249729 	-0.101714 	1.29164e-21 0.249533 	-0.101712 	1.30572e-21 0.249338 	-0.10171 	1.31971e-21 0.247656 	-0.10171 	8.99725e-22 0.245962 	-0.10171 	4.77386e-22 0.244255 	-0.101708 	5.26516e-23 0.242514 	-0.101682 	-1.50653e-22 0.240664 	-0.10157 	4.31526e-22 0.238858 	-0.101607 	6.11209e-22 0.237034 	-0.101643 	7.89275e-22 0.235055 	-0.10158 	7.39984e-22 0.232962 	-0.101423 	4.98812e-22 0.230827 	-0.101262 	2.53915e-22 0.228937 	-0.101263 	7.94423e-22 0.226956 	-0.101182 	9.42553e-22 0.22492 	-0.101058 	8.87524e-22 0.222867 	-0.100932 	8.30133e-22 0.220767 	-0.100801 	7.56794e-22 0.220751 	-0.100801 	7.72136e-22 0.220734 	-0.1008 	7.73305e-22 0.220717 	-0.100799 	7.6666e-22 0.2207 	-0.100798 	7.60014e-22 0.220684 	-0.100796 	7.53372e-22 0.218743 	-0.100662 	1.89553e-22 0.216786 	-0.100526 	-3.77236e-22 0.214813 	-0.100389 	-9.47057e-22 0.212862 	-0.10022 	-9.75916e-22 0.21097 	-0.0999633 	4.55505e-22 0.208946 	-0.0998554 	2.58333e-21 0.206904 	-0.0997455 	4.70805e-21 0.204921 	-0.0995469 	4.93182e-21 0.202972 	-0.0992559 	3.17468e-21 0.200978 	-0.0989591 	1.39359e-21 0.199336 	-0.0988455 	2.10833e-21 0.197749 	-0.0986727 	2.13191e-21 0.19619 	-0.0984656 	1.75841e-21 0.194621 	-0.0982573 	1.38419e-21 0.193125 	-0.0980589 	1.02906e-21 0.19264 	-0.0979976 	9.42515e-22 0.192154 	-0.0979362 	8.55938e-22 0.191666 	-0.0978747 	7.69329e-22 0.191207 	-0.0978036 	7.09781e-22 0.19078 	-0.0977203 	6.83518e-22 0.188615 	-0.0974592 	5.1466e-22 0.186472 	-0.0971598 	3.69174e-22 0.18431 	-0.0968583 	2.23153e-22 0.182349 	-0.09648 	-4.88837e-23 0.180394 	-0.096074 	-3.58454e-22 0.178138 	-0.0957823 	-2.29028e-21 0.175947 	-0.0954584 	-3.49469e-21 0.173925 	-0.0950667 	-3.10245e-21 0.171885 	-0.0946728 	-2.70655e-21 0.169805 	-0.094253 	-1.95033e-21 0.169596 	-0.0942234 	-1.891e-21 0.169396 	-0.09419 	-1.86561e-21 0.169211 	-0.0941518 	-1.88551e-21 0.169025 	-0.0941135 	-1.90543e-21 0.168841 	-0.0940755 	-1.92526e-21 0.166947 	-0.0936962 	-2.60068e-21 0.165039 	-0.0933151 	-3.28163e-21 0.163116 	-0.0929321 	-3.96828e-21 0.161297 	-0.0924962 	-2.59018e-21 0.159523 	-0.0920131 	3.41962e-22 0.157345 	-0.0915986 	-6.1885e-23 0.155161 	-0.0911749 	-4.00368e-22 0.153169 	-0.090657 	1.98329e-22 0.151161 	-0.0901367 	8.00251e-22 0.149112 	-0.0895703 	1.83723e-21 0.148736 	-0.0894946 	1.8152e-21 0.148372 	-0.0894136 	1.79043e-21 0.148032 	-0.0893214 	1.75978e-21 0.147692 	-0.0892292 	1.72915e-21 0.147355 	-0.089138 	1.6989e-21 0.14564 	-0.0886835 	1.57544e-21 0.143913 	-0.0882272 	1.45289e-21 0.142172 	-0.0877691 	1.3313e-21 0.140559 	-0.0872564 	8.41595e-22 0.13897 	-0.0867089 	1.7563e-22 0.136824 	-0.0861606 	3.46767e-22 0.134693 	-0.0855958 	4.98634e-22 0.132747 	-0.0849491 	5.42983e-22 0.130786 	-0.0842999 	5.86246e-22 0.128768 	-0.0836223 	5.29833e-22 0.128658 	-0.0835932 	5.08775e-22 0.128551 	-0.0835632 	4.97214e-22 0.128452 	-0.0835295 	5.21738e-22 0.128354 	-0.0834958 	5.4627e-22 0.128256 	-0.0834623 	5.7073e-22 0.12636 	-0.0828238 	7.64005e-22 0.124449 	-0.0821829 	9.58931e-22 0.122521 	-0.0815394 	1.15557e-21 0.120767 	-0.0808291 	1.42522e-21 0.119011 	-0.0800843 	1.7208e-21 0.117368 	-0.0795478 	4.03171e-21 0.115742 	-0.0789987 	5.84185e-21 0.114269 	-0.0783911 	4.94037e-21 0.112787 	-0.0777819 	4.0356e-21 0.111363 	-0.0771986 	3.16841e-21 0.110932 	-0.0770249 	3.15953e-21 0.1105 	-0.0768511 	3.15064e-21 0.110068 	-0.0766772 	3.14173e-21 0.109685 	-0.0764876 	3.05105e-21 0.109307 	-0.0762949 	2.94879e-21 0.107362 	-0.0755218 	1.23802e-21 0.105408 	-0.0747397 	-4.43353e-22 0.103538 	-0.0739124 	-1.39687e-21 0.101825 	-0.0730302 	-9.88527e-22 0.100058 	-0.0721245 	-5.69096e-22 0.0992968 	-0.0718162 	-1.86058e-21 0.0985371 	-0.0715059 	-3.02691e-21 0.0978646 	-0.0711675 	-1.9109e-21 0.0971903 	-0.0708288 	-7.93386e-22 0.0965277 	-0.0704965 	3.03416e-22 0.0954145 	-0.0699443 	1.37201e-21 0.0942962 	-0.069391 	2.44306e-21 0.0931727 	-0.0688368 	3.51663e-21 0.0921953 	-0.0682399 	2.25712e-21 0.0912083 	-0.0676334 	8.98318e-22 0.0895709 	-0.0668343 	2.98548e-21 0.0879229 	-0.0660321 	5.04985e-21 0.086483 	-0.0651669 	3.66919e-21 0.0850368 	-0.0643003 	2.28583e-21 0.0836353 	-0.0634628 	9.48609e-22 0.083447 	-0.0633514 	6.72451e-22 0.0832586 	-0.06324 	3.9621e-22 0.0830708 	-0.0631284 	1.33639e-22 0.0829105 	-0.0630099 	4.48678e-22 0.08275 	-0.0628913 	7.64231e-22 0.0811063 	-0.0619252 	-4.26153e-22 0.0794706 	-0.0609451 	-1.36552e-21 0.0778958 	-0.0599433 	-1.7489e-21 0.0764903 	-0.058897 	-8.3214e-22 0.0750631 	-0.0578352 	9.75015e-23 0.0745226 	-0.0575129 	-3.05491e-22 0.0739809 	-0.0571903 	-7.08371e-22 0.0735103 	-0.0568499 	-5.68146e-22 0.0730444 	-0.0565083 	-3.90994e-22 0.0725819 	-0.0561694 	-2.15242e-22 0.0716222 	-0.0554683 	-4.15919e-22 0.0706613 	-0.0547668 	-6.16718e-22 0.0697102 	-0.0540629 	-7.63641e-22 0.0689019 	-0.0533278 	-1.87594e-22 0.068095 	-0.0525922 	3.897e-22 0.0670507 	-0.0518337 	1.43355e-21 0.066005 	-0.051074