/*--------------------------------*- C++ -*----------------------------------*\
| =========                 |                                                 |
| \\      /  F ield         | OpenFOAM: The Open Source CFD Toolbox           |
|  \\    /   O peration     | Version:  2112                                  |
|   \\  /    A nd           | Website:  www.openfoam.com                      |
|    \\/     M anipulation  |                                                 |
\*---------------------------------------------------------------------------*/
FoamFile
{
    version     2.0;
    format      ascii;
    arch        "LSB;label=32;scalar=64";
    class       volScalarField;
    location    "200";
    object      epsilon;
}
// * * * * * * * * * * * * * * * * * * * * * * * * * * * * * * * * * * * * * //

dimensions      [0 2 -3 0 0 0 0];

internalField   nonuniform List<scalar> 
12225
(
214.005
68.5323
54.4516
48.8358
45.663
43.489
41.8328
40.4942
39.3714
38.4095
37.5787
36.8655
36.2696
35.8051
35.5098
35.5277
35.9468
37.1769
58.3698
31.2051
23.7429
20.673
18.8549
17.5819
16.6068
15.8203
15.1645
14.6057
14.1228
13.7021
13.335
13.0163
12.7412
12.5217
12.336
12.1207
31.1053
22.3894
17.373
14.8992
13.3544
12.2506
11.3988
10.7102
10.1365
9.64826
9.22641
8.85775
8.53257
8.24334
7.98184
7.74393
7.50776
7.26257
22.0892
18.4966
14.8994
12.7763
11.3676
10.3377
9.53586
8.88554
8.3433
7.88207
7.48379
7.13568
6.82809
6.55323
6.30335
6.07218
5.84629
5.62765
18.1131
16.3048
13.6198
11.7657
10.4541
9.46815
8.69082
8.05672
7.52666
7.07542
6.68575
6.34523
6.04437
5.77549
5.5315
5.30636
5.09201
4.8893
16.1121
14.9413
12.8566
11.2261
9.99731
9.04451
8.28126
7.65331
7.12597
6.67599
6.28699
5.94694
5.64655
5.37834
5.13577
4.91341
4.70597
4.51306
15.0518
14.0546
12.3672
10.9235
9.77127
8.84865
8.09587
7.46978
6.94063
6.48737
6.09466
5.75102
5.44738
5.17653
4.93238
4.71003
4.50555
4.31776
14.4997
13.457
12.0431
10.7525
9.672
8.7796
8.0367
7.41144
6.87898
6.42065
6.0223
5.6729
5.36395
5.0885
4.84086
4.61655
4.41219
4.22608
14.2054
13.0839
11.8299
10.6588
9.6434
8.78066
8.04936
7.42597
6.89047
6.42677
6.02213
5.66641
5.35146
5.07066
4.81865
4.59121
4.38516
4.1984
14.0571
12.857
11.6926
10.6108
9.65204
8.8199
8.1023
7.48282
6.94579
6.47769
6.06729
5.70534
5.38427
5.09785
4.84099
4.60967
4.40074
4.2118
13.9903
12.725
11.6068
10.5884
9.67748
8.87496
8.17296
7.55987
7.02359
6.55293
6.13819
5.77108
5.44464
5.15307
4.89157
4.65626
4.44398
4.2521
13.9688
12.6587
11.5586
10.5789
9.70322
8.9258
8.23917
7.63415
7.10092
6.6301
6.21324
5.84294
5.51282
5.21748
4.95238
4.71377
4.49849
4.30379
13.9654
12.6225
11.527
10.5722
9.72409
8.96895
8.29777
7.70223
7.17397
6.70496
6.28782
5.91595
5.58353
5.28555
5.01774
4.77646
4.55858
4.36134
13.9733
12.605
11.504
10.5636
9.73666
9.00248
8.34825
7.76468
7.24416
6.77959
6.36456
5.99313
5.66007
5.36078
5.09125
4.84803
4.62805
4.42858
13.9873
12.6021
11.4876
10.5497
9.73573
9.01754
8.37885
7.80875
7.29876
6.84182
6.4319
6.06368
5.7324
5.43387
5.16437
4.92061
4.69968
4.49892
14.0027
12.6087
11.477
10.5311
9.71953
9.01049
8.38372
7.82561
7.32652
6.8791
6.47701
6.11492
5.7883
5.49315
5.22595
4.9836
4.76339
4.56282
14.0155
12.6194
11.4724
10.5133
9.69568
8.98757
8.36668
7.81718
7.32757
6.88921
6.49537
6.14052
5.82001
5.52988
5.26669
5.02744
4.80954
4.61063
14.0231
12.6284
11.4732
10.5046
9.68028
8.96951
8.34958
7.80364
7.31911
6.88647
6.49834
6.14881
5.83303
5.54693
5.28708
5.05055
4.83477
4.63749
14.022
12.6286
11.4765
10.5112
9.68951
8.98033
8.36109
7.81514
7.3302
6.8969
6.50797
6.15757
5.84091
5.55397
5.29334
5.05607
4.8396
4.64174
14.0083
12.6148
11.4784
10.5296
9.71829
9.01222
8.39021
7.83758
7.34388
6.90119
6.50321
6.1446
5.82072
5.5276
5.26177
5.02021
4.80026
4.59965
13.9895
12.6061
11.4911
10.5537
9.7411
9.02487
8.38846
7.82088
7.31329
6.85855
6.45048
6.0837
5.75347
5.45556
5.1863
4.94243
4.72109
4.51982
13.9708
12.6158
11.5178
10.5716
9.73553
8.99281
8.33211
7.74412
7.2208
6.75481
6.33933
5.96818
5.6359
5.33775
5.06949
4.82748
4.60859
4.41016
13.9778
12.6807
11.5763
10.5852
9.69913
8.91422
8.22283
7.61506
7.08068
6.60979
6.19362
5.82459
5.49621
5.20299
4.94025
4.70403
4.49098
4.29828
14.0754
12.876
11.707
10.6189
9.65519
8.81987
8.09993
7.47863
6.94024
6.47122
6.06036
5.69853
5.37826
5.09343
4.839
4.61079
4.40534
4.21972
14.4156
13.3343
11.9768
10.7226
9.6603
8.77309
8.02998
7.40179
6.86529
6.4027
6.00044
5.64802
5.33723
5.06152
4.81566
4.59538
4.39717
4.21808
15.3313
14.2822
12.4866
10.9859
9.80683
8.87126
8.11085
7.47966
6.94679
6.49074
6.09605
5.75129
5.44776
5.17873
4.93887
4.72392
4.53038
4.3553
17.7196
15.9979
13.4161
11.594
10.2891
9.30311
8.52285
7.88467
7.35026
6.89485
6.50146
6.15795
5.85535
5.58678
5.34691
5.13153
4.93716
4.7608
24.0587
19.2728
15.2744
13.0479
11.5965
10.5424
9.7231
9.05821
8.50301
8.02987
7.62046
7.26197
6.94506
6.6627
6.40948
6.1812
5.9742
5.78563
45.5297
26.7486
20.1572
17.3333
15.624
14.4117
13.4763
12.7174
12.0817
11.5369
11.0621
10.643
10.2693
9.93331
9.6292
9.35272
9.09907
8.86717
182.195
57.8097
45.0235
39.908
36.8999
34.7721
33.1207
31.7664
30.614
29.6082
28.7142
27.9087
27.1756
26.5031
25.8822
25.3071
24.7675
24.2727
0.0130537
0.00869675
0.0122861
0.0164611
0.0205625
0.0241821
0.0272096
0.0296087
0.0316123
0.0338182
0.0375186
0.0440645
0.0530593
0.0643343
0.078032
0.0944472
0.113907
0.136716
0.1631
0.193204
0.227017
0.264419
0.305154
0.348897
0.395228
0.443716
0.493875
0.545264
0.59741
0.649959
0.702358
0.754206
0.80516
0.854982
0.903394
0.950242
0.995303
1.03848
1.07957
1.1185
1.15511
1.18934
1.22108
1.25031
1.27695
1.30111
1.32292
1.34284
1.36048
1.37605
1.3895
1.40091
1.41026
1.4176
1.42291
1.42551
1.42724
1.42739
1.4248
1.42058
1.4145
1.40671
1.39721
1.38609
1.37341
1.35922
1.34359
1.32639
1.30783
1.2882
1.26743
1.24563
1.22289
1.19927
1.1749
1.14983
1.12418
1.09803
1.07148
1.0446
1.0175
0.990243
0.962956
0.935703
0.908661
0.882062
0.856782
0.836815
0.829728
0.830154
0.832144
0.834285
0.836236
0.837914
0.839304
0.840404
0.841275
0.841912
0.842266
0.842397
0.842266
0.841896
0.84132
0.840603
0.839724
0.838676
0.837469
0.836102
0.834587
0.832922
0.831119
0.829177
0.827107
0.824906
0.822586
0.820138
0.817595
0.814953
0.812211
0.80936
0.806403
0.803341
0.800181
0.796923
0.793575
0.790131
0.786596
0.78297
0.779261
0.775473
0.771626
0.76772
0.763762
0.759752
0.755695
0.75159
0.747437
0.743248
0.739009
0.734697
0.730318
0.725893
0.721445
0.716992
0.712545
0.708113
0.703701
0.699314
0.694957
0.690633
0.686346
0.682101
0.677901
0.67375
0.669649
0.665601
0.661604
0.657657
0.653761
0.649913
0.646106
0.642334
0.638591
0.634868
0.631151
0.62742
0.623651
0.619809
0.615847
0.611708
0.607303
0.60253
0.597221
0.591169
0.584133
0.575297
0.565387
0.548934
0.535022
0.486533
0.0328627
0.0171126
0.0137566
0.0140211
0.015665
0.0180573
0.0209329
0.0241905
0.027869
0.0321337
0.0372407
0.0434277
0.0506971
0.0590476
0.0684979
0.0790835
0.0908366
0.103789
0.117957
0.133078
0.148969
0.165448
0.182315
0.199388
0.216491
0.233486
0.250216
0.26656
0.282429
0.297775
0.312545
0.32673
0.340324
0.353344
0.365796
0.377705
0.389077
0.399932
0.410272
0.420111
0.429445
0.438294
0.446668
0.454608
0.462171
0.469489
0.476845
0.484687
0.492044
0.498925
0.505305
0.511173
0.516508
0.521299
0.525526
0.529164
0.532351
0.534961
0.536925
0.538336
0.539188
0.539369
0.539025
0.538114
0.536645
0.534626
0.532062
0.528936
0.525293
0.52119
0.516624
0.511613
0.506183
0.500352
0.494149
0.487596
0.480724
0.473556
0.466124
0.458451
0.450573
0.442516
0.43432
0.426024
0.4177
0.40947
0.401643
0.394964
0.39042
0.387462
0.385155
0.383051
0.380972
0.378852
0.376667
0.374409
0.372089
0.369711
0.36727
0.364775
0.362227
0.359632
0.356997
0.354337
0.351656
0.348956
0.346239
0.34351
0.340771
0.338024
0.335272
0.332519
0.329765
0.327013
0.324265
0.321521
0.318806
0.316111
0.31343
0.31076
0.308101
0.305451
0.302813
0.300186
0.297573
0.294974
0.292391
0.289821
0.287266
0.284727
0.282206
0.279707
0.27723
0.274776
0.272345
0.269938
0.267554
0.265192
0.262875
0.260613
0.258376
0.256154
0.253951
0.251771
0.249617
0.247489
0.24539
0.243321
0.241284
0.23928
0.237308
0.235371
0.233467
0.231599
0.229767
0.22797
0.226209
0.224483
0.222791
0.221136
0.219513
0.217923
0.216364
0.214837
0.213341
0.211873
0.210432
0.209015
0.207618
0.206238
0.204866
0.203499
0.202121
0.200722
0.199324
0.197757
0.196495
0.19443
0.193592
0.192503
0.05923
0.0281985
0.0212375
0.0203566
0.0216334
0.0240641
0.0273206
0.0312736
0.0358764
0.0411256
0.0470336
0.0535791
0.0607296
0.0684184
0.0765813
0.0851542
0.0940601
0.103194
0.112436
0.121799
0.131235
0.140694
0.150126
0.159496
0.168771
0.177928
0.186947
0.195817
0.20453
0.213088
0.22149
0.229742
0.237849
0.245816
0.253645
0.26134
0.2689
0.276325
0.28361
0.290755
0.297756
0.304613
0.311331
0.317918
0.324392
0.330803
0.337146
0.343391
0.349412
0.355173
0.360651
0.365826
0.370679
0.375196
0.37936
0.383162
0.386601
0.38965
0.392295
0.394538
0.396373
0.397788
0.398807
0.399371
0.399514
0.399245
0.398577
0.397504
0.396038
0.394198
0.391995
0.38944
0.386547
0.383331
0.379809
0.375996
0.371912
0.367575
0.363004
0.358221
0.353247
0.348105
0.342823
0.337434
0.331989
0.326566
0.321306
0.316436
0.312178
0.308454
0.305043
0.301779
0.298569
0.295366
0.29215
0.288912
0.285655
0.282381
0.279091
0.275789
0.272478
0.269162
0.265845
0.262536
0.259236
0.255951
0.252682
0.249432
0.246204
0.243001
0.239824
0.236674
0.233554
0.230463
0.227405
0.224378
0.221391
0.218443
0.215533
0.21266
0.209824
0.207024
0.204261
0.201534
0.198843
0.196196
0.193591
0.191024
0.188493
0.186
0.183546
0.18113
0.178753
0.176416
0.174119
0.171863
0.169647
0.167469
0.165333
0.163242
0.161191
0.159176
0.157199
0.155259
0.153357
0.151495
0.149673
0.147892
0.146149
0.144446
0.142782
0.141157
0.139572
0.138025
0.136518
0.135049
0.133619
0.132226
0.130871
0.129554
0.128273
0.127029
0.125821
0.124648
0.123511
0.12241
0.121345
0.120315
0.119321
0.118365
0.117447
0.116571
0.115741
0.11496
0.114268
0.113599
0.113239
0.112702
0.113019
0.115378
0.0775304
0.0378667
0.0294889
0.0283128
0.0296374
0.0322982
0.0358778
0.0401921
0.045125
0.0505787
0.0564583
0.0626697
0.0691262
0.0757534
0.0824945
0.0893089
0.0961665
0.103045
0.109945
0.11685
0.123764
0.130683
0.1376
0.144511
0.151411
0.158299
0.165171
0.172029
0.178872
0.185702
0.192521
0.19933
0.206129
0.212918
0.219696
0.226459
0.233202
0.239922
0.24661
0.253261
0.259867
0.266421
0.272917
0.279346
0.28571
0.291997
0.298182
0.304232
0.310105
0.315772
0.321207
0.326391
0.331301
0.33592
0.340232
0.34422
0.347872
0.351172
0.35411
0.356675
0.358863
0.360667
0.362086
0.363116
0.363732
0.363946
0.363791
0.363261
0.362362
0.361105
0.359501
0.357561
0.355298
0.352726
0.34986
0.346715
0.343309
0.339659
0.335782
0.331699
0.327429
0.322993
0.318416
0.313728
0.308967
0.304184
0.299455
0.294871
0.290507
0.286359
0.282367
0.278468
0.274618
0.27079
0.266969
0.263152
0.259337
0.255531
0.251734
0.247946
0.244172
0.240416
0.236681
0.232974
0.229296
0.225651
0.222042
0.218471
0.214941
0.211454
0.208011
0.204613
0.20126
0.197953
0.194694
0.191483
0.188322
0.185211
0.182152
0.179142
0.176183
0.173272
0.17041
0.167597
0.164833
0.162118
0.159452
0.156835
0.154266
0.151743
0.149268
0.146839
0.144457
0.142121
0.139836
0.137599
0.135408
0.133262
0.131161
0.129106
0.127094
0.125126
0.123201
0.121319
0.119478
0.11768
0.115923
0.114208
0.112533
0.1109
0.109307
0.107755
0.106242
0.104769
0.103335
0.10194
0.100583
0.0992628
0.0979802
0.0967345
0.0955252
0.0943521
0.0932146
0.0921125
0.0910456
0.090014
0.0890179
0.0880579
0.0871347
0.0862499
0.0854056
0.0846056
0.0838561
0.0831613
0.082552
0.0819995
0.0816832
0.0813096
0.0815426
0.0832413
0.0872625
0.0462089
0.0376752
0.0363782
0.0376109
0.0401985
0.0436774
0.0478229
0.0524829
0.0575292
0.0628474
0.0683399
0.0739316
0.0795718
0.0852324
0.0909029
0.0965832
0.102305
0.10803
0.113794
0.119603
0.125462
0.131373
0.137339
0.143361
0.149442
0.155584
0.161787
0.168053
0.174383
0.180777
0.187235
0.193755
0.200333
0.206965
0.213645
0.220365
0.227116
0.233889
0.240672
0.247453
0.254222
0.260964
0.267667
0.274313
0.280873
0.287317
0.293618
0.299746
0.305672
0.311373
0.316825
0.322007
0.326897
0.331477
0.335729
0.339639
0.343192
0.346376
0.34918
0.351598
0.353625
0.355256
0.35649
0.357321
0.357723
0.357754
0.357397
0.356668
0.355574
0.354126
0.352335
0.350216
0.347783
0.34505
0.342036
0.338755
0.335228
0.331471
0.327504
0.323347
0.319022
0.314551
0.309961
0.305283
0.300555
0.295822
0.291132
0.286525
0.28201
0.277572
0.273192
0.268848
0.26453
0.260229
0.255943
0.251672
0.247413
0.243171
0.238953
0.234766
0.230613
0.226499
0.222427
0.218401
0.214424
0.210498
0.206625
0.202808
0.199049
0.195349
0.191707
0.188123
0.1846
0.181136
0.177733
0.174391
0.17111
0.167891
0.164733
0.161635
0.158596
0.155617
0.152695
0.149831
0.147024
0.144274
0.141581
0.138942
0.136358
0.133828
0.131352
0.128928
0.126556
0.124237
0.12197
0.119753
0.117587
0.115469
0.1134
0.111378
0.109404
0.107478
0.105598
0.103763
0.101973
0.100226
0.0985215
0.0968605
0.095242
0.0936654
0.0921299
0.0906348
0.0891796
0.087764
0.0863872
0.0850486
0.0837475
0.0824834
0.081256
0.0800646
0.0789088
0.0777882
0.0767024
0.0756512
0.0746344
0.0736522
0.072705
0.0717934
0.0709189
0.0700831
0.0692893
0.0685426
0.0678479
0.0672253
0.0666656
0.0662763
0.0658695
0.0659182
0.0668496
0.131348
0.0626001
0.0479397
0.0447379
0.0450269
0.0470201
0.0499938
0.053621
0.0577087
0.0621186
0.0667435
0.0715027
0.0763411
0.0812276
0.08615
0.0911108
0.0961482
0.101202
0.106331
0.111542
0.116843
0.122241
0.127741
0.133348
0.139066
0.144898
0.150848
0.156917
0.163107
0.169418
0.17585
0.182399
0.189062
0.195834
0.202709
0.209676
0.216723
0.223839
0.231009
0.238219
0.245451
0.252687
0.259909
0.267094
0.274215
0.281243
0.28815
0.294905
0.301478
0.307842
0.313969
0.319834
0.325411
0.33068
0.335617
0.340205
0.344426
0.348265
0.35171
0.354749
0.357375
0.359583
0.361368
0.362731
0.36367
0.364162
0.364251
0.363934
0.363222
0.362126
0.360656
0.358827
0.356654
0.354151
0.351336
0.348227
0.344842
0.3412
0.337321
0.333224
0.32893
0.324461
0.31984
0.315091
0.310241
0.305319
0.300357
0.295387
0.290435
0.285515
0.280632
0.275781
0.270959
0.266163
0.26139
0.256643
0.251923
0.247236
0.242584
0.23797
0.2334
0.228877
0.224406
0.219989
0.215631
0.211334
0.2071
0.202932
0.198831
0.194793
0.190823
0.186923
0.183094
0.179337
0.175652
0.172038
0.168496
0.165026
0.161627
0.1583
0.155043
0.151854
0.148733
0.145679
0.142691
0.139768
0.13691
0.134115
0.131382
0.128711
0.126101
0.12355
0.121058
0.118623
0.116245
0.113923
0.111656
0.109444
0.107284
0.105176
0.10312
0.101113
0.0991573
0.09725
0.0953906
0.0935779
0.0918111
0.0900894
0.0884138
0.0867829
0.0851954
0.0836504
0.0821469
0.0806845
0.0792628
0.0778808
0.0765376
0.0752324
0.0739649
0.0727344
0.0715402
0.0703818
0.0692585
0.0681699
0.0671157
0.0660958
0.0651099
0.0641585
0.0632418
0.0623608
0.0615172
0.0607132
0.0599532
0.0592414
0.0585912
0.0580032
0.0575349
0.0571323
0.0569374
0.0574077
0.201782
0.0847719
0.0594239
0.0527407
0.0514975
0.0524836
0.0546938
0.0576406
0.0610713
0.0648316
0.0688186
0.0729632
0.0772221
0.0815723
0.086029
0.0905818
0.0951843
0.0998942
0.104723
0.109679
0.11477
0.120003
0.125385
0.130922
0.13662
0.142483
0.148515
0.154719
0.161095
0.167646
0.174367
0.181252
0.188296
0.19549
0.202823
0.210279
0.217852
0.225529
0.233294
0.241124
0.248997
0.256886
0.264762
0.272595
0.280355
0.288011
0.295531
0.302882
0.310033
0.316953
0.32361
0.329978
0.336028
0.341736
0.347079
0.352037
0.356591
0.360725
0.364426
0.367683
0.37049
0.37284
0.374731
0.376163
0.377139
0.37764
0.377706
0.377335
0.376541
0.375335
0.373732
0.371748
0.369398
0.366701
0.363674
0.360339
0.356715
0.352822
0.348682
0.344316
0.339745
0.334992
0.33008
0.325032
0.319872
0.314626
0.30932
0.303979
0.298625
0.293274
0.287936
0.282618
0.277323
0.272055
0.266816
0.261611
0.256443
0.251319
0.246241
0.241215
0.236245
0.231336
0.22649
0.221713
0.217007
0.212374
0.207817
0.203338
0.198939
0.19462
0.190382
0.186226
0.182151
0.178158
0.174248
0.170419
0.166671
0.163004
0.159418
0.155907
0.152474
0.149119
0.14584
0.142636
0.139507
0.13645
0.133465
0.130552
0.127708
0.124931
0.122222
0.119578
0.116998
0.114481
0.112026
0.109633
0.107299
0.105023
0.102805
0.100643
0.0985351
0.0964811
0.0944801
0.0925309
0.0906323
0.0887833
0.0869827
0.0852295
0.0835235
0.0818637
0.080249
0.0786784
0.0771508
0.0756663
0.0742243
0.0728232
0.0714621
0.0701399
0.0688564
0.0676109
0.0664024
0.0652301
0.0640935
0.0629921
0.0619255
0.0608932
0.059895
0.0589311
0.0580016
0.0571072
0.0562492
0.0554293
0.0546508
0.0539177
0.0532388
0.0526189
0.0520886
0.051646
0.0512877
0.0514787
0.283916
0.108754
0.0706766
0.059798
0.056724
0.0565507
0.0579037
0.0601449
0.0629486
0.0661352
0.0695962
0.0732657
0.0771256
0.0811473
0.0852798
0.0895216
0.0939123
0.0984568
0.103163
0.108041
0.113097
0.118341
0.123781
0.129424
0.135278
0.141348
0.14764
0.154153
0.160884
0.167826
0.174975
0.182338
0.189912
0.197688
0.205658
0.213804
0.222101
0.230526
0.239054
0.247658
0.256309
0.264976
0.273626
0.282226
0.290739
0.29913
0.307362
0.315399
0.323205
0.330746
0.337989
0.344901
0.351454
0.357622
0.363379
0.368704
0.373578
0.377985
0.381912
0.385349
0.38829
0.39073
0.392667
0.394105
0.395044
0.395481
0.395445
0.39494
0.393979
0.392578
0.390754
0.388523
0.385906
0.382923
0.379593
0.37594
0.371984
0.367749
0.363257
0.358531
0.353594
0.348468
0.343178
0.337746
0.332195
0.32655
0.320833
0.315068
0.309274
0.303469
0.297667
0.291878
0.28611
0.280372
0.274668
0.269006
0.263391
0.257829
0.252326
0.246886
0.241514
0.236214
0.230992
0.225849
0.22079
0.215816
0.210931
0.206135
0.20143
0.196818
0.192298
0.18787
0.183536
0.179294
0.175145
0.171088
0.167121
0.163246
0.159459
0.155761
0.15215
0.148624
0.145183
0.141824
0.138547
0.13535
0.132232
0.12919
0.126223
0.12333
0.120509
0.11776
0.115082
0.112471
0.109928
0.107451
0.105038
0.102688
0.1004
0.0981716
0.0960021
0.0938901
0.0918342
0.0898333
0.0878861
0.0859912
0.0841475
0.0823538
0.0806093
0.0789129
0.0772635
0.0756601
0.0741014
0.0725869
0.0711158
0.0696868
0.068299
0.0669514
0.0656442
0.0643762
0.0631462
0.0619531
0.0607967
0.0596763
0.0585913
0.057541
0.0565254
0.0555442
0.0545974
0.0536856
0.0528096
0.0519709
0.051172
0.050416
0.0497095
0.0490579
0.0484787
0.0479858
0.0475254
0.0475214
0.370181
0.132519
0.0809695
0.0656966
0.0606072
0.0593401
0.0598575
0.0614448
0.0637021
0.0664157
0.0694917
0.0728517
0.0764129
0.0801453
0.0840655
0.0881744
0.0924755
0.0969747
0.10168
0.106602
0.111749
0.117131
0.122759
0.128641
0.134788
0.141196
0.147861
0.154788
0.161994
0.169484
0.17726
0.185307
0.193609
0.202152
0.210915
0.219879
0.22902
0.238309
0.247717
0.257209
0.266751
0.276304
0.285828
0.295285
0.304632
0.313827
0.32283
0.331599
0.340095
0.348279
0.356116
0.363573
0.370617
0.377221
0.38336
0.389011
0.394157
0.398781
0.402872
0.406422
0.409425
0.411879
0.413785
0.415147
0.415969
0.416261
0.416038
0.415311
0.414099
0.412418
0.410289
0.407732
0.404769
0.401422
0.397713
0.393668
0.38931
0.384663
0.379752
0.374601
0.369234
0.363675
0.357948
0.352076
0.346083
0.339991
0.333824
0.327602
0.321345
0.315072
0.308797
0.302535
0.296295
0.290089
0.283924
0.277809
0.27175
0.265754
0.259827
0.253976
0.248203
0.242516
0.236917
0.231409
0.225997
0.220682
0.215467
0.210354
0.205342
0.200434
0.195629
0.190929
0.186331
0.181837
0.177445
0.173155
0.168966
0.164877
0.160886
0.156992
0.153193
0.149489
0.145877
0.142355
0.138922
0.135577
0.132317
0.129142
0.126048
0.123035
0.1201
0.117243
0.11446
0.111751
0.109114
0.106547
0.104049
0.101618
0.0992522
0.0969509
0.0947124
0.0925353
0.0904178
0.0883586
0.0863561
0.0844092
0.0825165
0.0806765
0.078888
0.0771498
0.0754608
0.0738196
0.0722252
0.0706766
0.0691726
0.0677123
0.0662946
0.0649183
0.063583
0.0622877
0.0610313
0.0598128
0.0586325
0.0574892
0.056382
0.0553102
0.0542737
0.0532723
0.0523055
0.0513738
0.0504778
0.0496186
0.048798
0.0480187
0.0472855
0.0466036
0.0459837
0.0454409
0.044939
0.0447508
0.453096
0.154504
0.0898932
0.0703801
0.0633603
0.0610351
0.06082
0.0618366
0.0636544
0.0660399
0.0688088
0.0718748
0.0752163
0.0788107
0.0826445
0.0867144
0.0910228
0.0955764
0.100384
0.105457
0.110807
0.116446
0.122383
0.128619
0.135151
0.142001
0.149192
0.156732
0.16462
0.172846
0.181398
0.190264
0.19943
0.208875
0.218576
0.228504
0.23863
0.248916
0.259327
0.269819
0.28035
0.290876
0.301348
0.31172
0.321945
0.331975
0.341763
0.351264
0.360436
0.369238
0.377631
0.385581
0.393055
0.400025
0.406467
0.41236
0.417686
0.422432
0.426589
0.430149
0.433112
0.435477
0.437248
0.438433
0.439041
0.439083
0.438581
0.437537
0.435982
0.433935
0.43142
0.428458
0.425073
0.421291
0.417138
0.412638
0.407817
0.402703
0.39732
0.391695
0.385852
0.379817
0.373613
0.367266
0.360797
0.35423
0.347588
0.340891
0.334159
0.327411
0.320663
0.313929
0.307223
0.300556
0.293937
0.287376
0.280881
0.274459
0.268117
0.261861
0.255696
0.249626
0.243657
0.23779
0.232031
0.22638
0.22084
0.215412
0.210097
0.204897
0.19981
0.194838
0.189979
0.185234
0.1806
0.176078
0.171666
0.167363
0.163167
0.159076
0.155089
0.151204
0.147419
0.143732
0.140142
0.136646
0.133242
0.129929
0.126705
0.123566
0.120513
0.117542
0.114651
0.11184
0.109105
0.106446
0.10386
0.101345
0.0989005
0.0965239
0.0942138
0.0919679
0.089785
0.0876637
0.0856023
0.0835996
0.0816539
0.0797638
0.0779277
0.0761444
0.0744125
0.0727307
0.0710977
0.0695122
0.0679731
0.0664792
0.0650293
0.0636223
0.0622574
0.0609335
0.0596496
0.0584048
0.0571984
0.0560296
0.0548977
0.053802
0.0527428
0.0517192
0.0507306
0.0497776
0.0488604
0.0479797
0.047137
0.0463344
0.0455755
0.0448648
0.0442094
0.0436216
0.0430795
0.0427604
0.525678
0.173479
0.0972499
0.0739236
0.0651734
0.0618619
0.0610451
0.0616222
0.0630947
0.0651547
0.0676825
0.0705938
0.073837
0.0773841
0.0812214
0.0853455
0.0897596
0.0944711
0.0994911
0.104836
0.11051
0.116516
0.122853
0.129559
0.136663
0.144175
0.152102
0.160437
0.16917
0.178296
0.187802
0.197669
0.207877
0.218398
0.2292
0.240246
0.251497
0.262907
0.274429
0.286014
0.297608
0.30916
0.320614
0.331916
0.343013
0.353853
0.364384
0.37456
0.384334
0.393664
0.402512
0.410843
0.418626
0.425835
0.432446
0.438442
0.443807
0.448533
0.452613
0.456045
0.458829
0.46097
0.462477
0.463359
0.463631
0.463314
0.462413
0.46095
0.458956
0.456453
0.453466
0.450021
0.446144
0.441861
0.437201
0.432191
0.426858
0.42123
0.415335
0.409198
0.402846
0.396305
0.3896
0.382754
0.375792
0.368736
0.361609
0.354431
0.347222
0.340001
0.332785
0.325589
0.318426
0.31131
0.30425
0.297257
0.29034
0.283505
0.276761
0.270113
0.263568
0.257129
0.2508
0.244587
0.23849
0.232513
0.226657
0.220924
0.215315
0.20983
0.204468
0.199231
0.194117
0.189126
0.184256
0.179507
0.174876
0.170362
0.165964
0.161679
0.157506
0.153443
0.149487
0.145636
0.141889
0.138243
0.134696
0.131246
0.12789
0.124626
0.121453
0.118368
0.115369
0.112453
0.10962
0.106866
0.104191
0.101591
0.0990647
0.0966107
0.094227
0.0919115
0.0896625
0.0874783
0.0853572
0.0832975
0.0812975
0.0793555
0.0774701
0.0756399
0.0738634
0.0721392
0.0704659
0.068842
0.0672664
0.0657376
0.0642545
0.0628158
0.0614204
0.0600672
0.0587552
0.0574834
0.0562508
0.0550567
0.0539002
0.0527806
0.0516976
0.0506505
0.0496391
0.048664
0.0477249
0.0468222
0.0459573
0.0451317
0.044348
0.04361
0.0429226
0.0422952
0.0417154
0.0412993
0.581412
0.188082
0.102769
0.076357
0.0661929
0.0620743
0.0607837
0.0609736
0.0621455
0.0640179
0.0664258
0.0692761
0.0725155
0.0761156
0.0800628
0.0843554
0.0890021
0.0940057
0.0993687
0.10509
0.111193
0.117714
0.124686
0.132124
0.140044
0.148447
0.157324
0.166672
0.176484
0.186744
0.197432
0.208522
0.219981
0.231772
0.243851
0.256171
0.268678
0.281319
0.294034
0.306764
0.319447
0.332022
0.344428
0.356605
0.368495
0.380042
0.391195
0.401904
0.412123
0.421812
0.430935
0.439458
0.447356
0.454604
0.461184
0.467083
0.472292
0.476804
0.480618
0.483738
0.486168
0.487918
0.489001
0.489432
0.489232
0.488416
0.486991
0.484998
0.482462
0.479409
0.475866
0.47186
0.46742
0.462575
0.457354
0.451786
0.445899
0.439722
0.433283
0.426609
0.419727
0.412663
0.405443
0.39809
0.390629
0.383082
0.375471
0.367817
0.36014
0.352458
0.344787
0.337144
0.329543
0.321996
0.314514
0.307109
0.299789
0.292562
0.285435
0.278415
0.271507
0.264717
0.258047
0.251502
0.245084
0.238796
0.232639
0.226615
0.220724
0.214966
0.209342
0.203851
0.198492
0.193265
0.188168
0.183199
0.178357
0.17364
0.169046
0.164574
0.16022
0.155984
0.151861
0.147851
0.143951
0.140159
0.136471
0.132886
0.129402
0.126015
0.122724
0.119527
0.11642
0.113402
0.110471
0.107624
0.104859
0.102174
0.0995669
0.0970358
0.0945784
0.0921929
0.0898773
0.0876297
0.0854482
0.0833311
0.0812766
0.0792829
0.0773483
0.0754712
0.07365
0.0718831
0.070169
0.0685063
0.0668936
0.0653295
0.0638128
0.0623419
0.0609159
0.0595333
0.0581932
0.0568943
0.0556357
0.0544165
0.0532357
0.0520926
0.0509866
0.0499171
0.0488835
0.0478862
0.046925
0.0460001
0.0451132
0.0442649
0.0434574
0.0426935
0.0419769
0.0413145
0.0406995
0.0402093
0.618752
0.198369
0.106735
0.0779669
0.0666791
0.0619132
0.0601916
0.0601136
0.0611235
0.0629117
0.0653057
0.0682091
0.0715696
0.075365
0.0795737
0.0841854
0.0891907
0.0945999
0.100452
0.106784
0.113621
0.120987
0.128905
0.137388
0.146427
0.156021
0.166165
0.176848
0.188051
0.199747
0.211902
0.224477
0.237424
0.25069
0.264217
0.277944
0.291804
0.30573
0.319652
0.333502
0.34721
0.360709
0.373934
0.386821
0.399312
0.411352
0.422889
0.433878
0.444278
0.454052
0.463169
0.471602
0.479331
0.486339
0.492614
0.498149
0.502941
0.506991
0.510303
0.512886
0.51475
0.515911
0.516386
0.516197
0.515366
0.51389
0.511819
0.509178
0.505994
0.502296
0.498111
0.493471
0.488405
0.482942
0.477112
0.470946
0.464473
0.457721
0.450719
0.443494
0.436073
0.428482
0.420746
0.412889
0.404936
0.396907
0.388826
0.380711
0.372583
0.364459
0.356357
0.348291
0.340275
0.332324
0.324447
0.316656
0.308959
0.301365
0.293882
0.286514
0.279269
0.27215
0.265161
0.258307
0.251589
0.24501
0.238572
0.232274
0.226119
0.220106
0.214235
0.208505
0.202915
0.197465
0.192152
0.186976
0.181934
0.177024
0.172245
0.167594
0.163069
0.158667
0.154385
0.150223
0.146176
0.142243
0.13842
0.134706
0.131097
0.127592
0.124187
0.120881
0.11767
0.114553
0.111526
0.108588
0.105737
0.102969
0.100283
0.097676
0.0951467
0.0926926
0.0903116
0.0880016
0.0857608
0.0835871
0.0814787
0.0794337
0.0774503
0.0755267
0.0736613
0.0718524
0.0700982
0.0683974
0.0667483
0.0651494
0.0635993
0.0620967
0.0606403
0.0592288
0.0578608
0.0565354
0.0552513
0.0540075
0.052803
0.051637
0.0505087
0.0494176
0.0483629
0.0473446
0.0463626
0.0454168
0.0445083
0.0436378
0.0428073
0.0420189
0.0412753
0.0405816
0.0399343
0.0393856
0.635017
0.2039
0.109073
0.0788016
0.0667273
0.0615191
0.0595306
0.0593307
0.0603113
0.0621594
0.0647
0.0678269
0.0714781
0.0756068
0.0802105
0.0853118
0.090939
0.0971173
0.103871
0.111232
0.119228
0.127882
0.137193
0.147155
0.157764
0.169011
0.180874
0.193325
0.206325
0.219829
0.233783
0.248125
0.262788
0.277702
0.29279
0.307976
0.323181
0.338327
0.353336
0.368133
0.382647
0.396808
0.410553
0.423822
0.436559
0.448718
0.460252
0.471126
0.481305
0.490762
0.499476
0.50743
0.514611
0.521011
0.526628
0.531463
0.53552
0.538808
0.541336
0.543121
0.544175
0.544522
0.544193
0.543192
0.541535
0.539267
0.536414
0.533004
0.529066
0.52463
0.519726
0.514384
0.508634
0.502507
0.496033
0.489241
0.48216
0.474819
0.467245
0.459467
0.451509
0.443398
0.435159
0.426813
0.418385
0.409897
0.401368
0.392818
0.384267
0.375731
0.367227
0.35877
0.350373
0.34205
0.333811
0.325667
0.317626
0.309698
0.301889
0.294204
0.286651
0.279233
0.271954
0.264817
0.257825
0.25098
0.244283
0.237736
0.231338
0.22509
0.218991
0.213041
0.207238
0.201582
0.19607
0.190702
0.185474
0.180385
0.175432
0.170614
0.165928
0.161371
0.156941
0.152635
0.14845
0.144384
0.140434
0.136597
0.132871
0.129253
0.125741
0.122331
0.119021
0.115809
0.112691
0.109666
0.106732
0.103884
0.101122
0.0984432
0.0958447
0.0933245
0.0908805
0.0885104
0.0862123
0.083984
0.0818235
0.0797289
0.0776982
0.0757295
0.0738212
0.0719713
0.0701782
0.0684402
0.0667557
0.0651231
0.0635408
0.0620075
0.0605217
0.059082
0.0576872
0.0563359
0.0550271
0.0537595
0.0525323
0.0513442
0.0501947
0.0490828
0.048008
0.0469699
0.0459682
0.045003
0.0440745
0.0431836
0.0423315
0.0415199
0.0407513
0.0400293
0.0393523
0.0387562
0.629706
0.204236
0.109432
0.0788052
0.0665068
0.0611119
0.0590813
0.0589631
0.0601168
0.0622095
0.0650473
0.0685629
0.0727232
0.077527
0.0829768
0.0890891
0.0958912
0.103411
0.111676
0.120711
0.13054
0.141148
0.152528
0.164662
0.177521
0.191068
0.205252
0.220013
0.235284
0.250988
0.267044
0.283366
0.299865
0.316452
0.333036
0.34953
0.365848
0.381908
0.397634
0.412954
0.427801
0.442115
0.455842
0.468933
0.481347
0.493048
0.504005
0.514194
0.523596
0.532197
0.539987
0.546961
0.553118
0.558461
0.562997
0.566735
0.56969
0.571874
0.573304
0.574007
0.573981
0.573306
0.571918
0.569901
0.567272
0.56406
0.560293
0.556
0.55121
0.545954
0.54026
0.53416
0.527682
0.520856
0.513712
0.506278
0.498581
0.490649
0.482509
0.474188
0.465709
0.457097
0.448376
0.439568
0.430695
0.421777
0.412834
0.403885
0.394947
0.386037
0.37717
0.368361
0.359622
0.350967
0.342405
0.333947
0.325602
0.317377
0.309278
0.301314
0.293487
0.285804
0.278266
0.270879
0.263643
0.256561
0.249635
0.242864
0.236249
0.22979
0.223487
0.217339
0.211344
0.205501
0.199809
0.194266
0.188869
0.183617
0.178506
0.173536
0.168702
0.164003
0.159436
0.154997
0.150685
0.146496
0.142428
0.138478
0.134643
0.13092
0.127307
0.1238
0.120397
0.117096
0.113894
0.110787
0.107774
0.104852
0.102019
0.0992714
0.0966075
0.0940249
0.0915213
0.0890943
0.0867419
0.0844617
0.0822518
0.08011
0.0780343
0.0760228
0.0740735
0.0721846
0.0703543
0.0685808
0.0668625
0.0651976
0.0635846
0.0620219
0.0605081
0.0590416
0.0576212
0.0562453
0.0549129
0.0536228
0.0523738
0.0511648
0.049995
0.0488636
0.0477697
0.046713
0.0456929
0.0447094
0.0437625
0.0428528
0.0419811
0.0411487
0.0403572
0.0396096
0.0389054
0.03827
0.606904
0.200972
0.108675
0.078425
0.0661874
0.0609827
0.0591805
0.0593606
0.0609184
0.0635769
0.0671918
0.0716937
0.0770631
0.083308
0.0904447
0.0984945
0.10748
0.11742