/*--------------------------------*- C++ -*----------------------------------*\
| =========                 |                                                 |
| \\      /  F ield         | OpenFOAM: The Open Source CFD Toolbox           |
|  \\    /   O peration     | Version:  2112                                  |
|   \\  /    A nd           | Website:  www.openfoam.com                      |
|    \\/     M anipulation  |                                                 |
\*---------------------------------------------------------------------------*/
FoamFile
{
    version     2.0;
    format      ascii;
    arch        "LSB;label=32;scalar=64";
    class       volScalarField;
    location    "200";
    object      k;
}
// * * * * * * * * * * * * * * * * * * * * * * * * * * * * * * * * * * * * * //

dimensions      [0 2 -2 0 0 0 0];

internalField   nonuniform List<scalar> 
12225
(
0.193514
0.0905789
0.0777029
0.0722639
0.0690991
0.0668879
0.0651787
0.0637804
0.0625958
0.0615718
0.0606804
0.0599099
0.0592621
0.0587546
0.0584304
0.0584495
0.0589071
0.0602411
0.288
0.179215
0.148132
0.13182
0.120765
0.112344
0.105539
0.0998485
0.0949839
0.090763
0.0870627
0.0837962
0.080901
0.0783327
0.0760591
0.0740848
0.0723115
0.0709708
0.319772
0.228285
0.190852
0.16985
0.155402
0.144344
0.135382
0.127867
0.121429
0.115829
0.110907
0.106548
0.102665
0.0991929
0.0960794
0.0932923
0.0907542
0.088497
0.334922
0.260037
0.221045
0.197461
0.180874
0.168082
0.157675
0.14893
0.141423
0.134883
0.129125
0.124014
0.119449
0.115352
0.111657
0.108315
0.105267
0.102504
0.343898
0.282686
0.244672
0.219824
0.201806
0.18773
0.176206
0.166484
0.158117
0.150813
0.14437
0.13864
0.133511
0.128894
0.124716
0.12092
0.117456
0.114313
0.349909
0.299575
0.263898
0.238771
0.219888
0.204878
0.192474
0.181951
0.17286
0.164901
0.157863
0.151592
0.145966
0.140891
0.136288
0.132098
0.128275
0.124804
0.354195
0.312423
0.279725
0.255065
0.235812
0.220186
0.207119
0.195949
0.186249
0.177725
0.170167
0.163415
0.157345
0.151859
0.146875
0.142334
0.138193
0.13443
0.35732
0.322234
0.29271
0.269052
0.249861
0.233924
0.220404
0.208741
0.198548
0.189549
0.181541
0.174366
0.167902
0.162048
0.156725
0.151871
0.147445
0.143416
0.359592
0.329657
0.30321
0.2809
0.262131
0.246166
0.232408
0.22041
0.209845
0.200466
0.192084
0.184549
0.177743
0.171569
0.165947
0.160818
0.156137
0.151868
0.361202
0.335153
0.311491
0.290704
0.272633
0.256895
0.243103
0.230935
0.220127
0.210471
0.2018
0.193976
0.186888
0.180444
0.174568
0.169202
0.164299
0.159817
0.362302
0.339073
0.317787
0.298546
0.281354
0.266051
0.252418
0.24024
0.229324
0.219503
0.210635
0.202599
0.195296
0.18864
0.18256
0.176999
0.171909
0.167245
0.362957
0.341498
0.321952
0.30403
0.28772
0.272954
0.259615
0.247568
0.236675
0.226807
0.217849
0.209698
0.202265
0.195472
0.189255
0.183558
0.178333
0.173532
0.363383
0.343113
0.324903
0.308136
0.292694
0.278529
0.265578
0.253761
0.242986
0.233159
0.224189
0.215991
0.208488
0.201612
0.195304
0.18951
0.184184
0.179279
0.363669
0.344166
0.32698
0.311261
0.296718
0.283257
0.270823
0.259369
0.248836
0.239159
0.230271
0.222106
0.214602
0.207701
0.201348
0.195497
0.190103
0.185121
0.363837
0.344677
0.32808
0.313133
0.299388
0.286652
0.274829
0.263858
0.253693
0.244289
0.235598
0.227571
0.220158
0.213311
0.206983
0.201134
0.195722
0.190708
0.363918
0.344782
0.328345
0.313788
0.300579
0.288437
0.277197
0.266755
0.257047
0.248025
0.239644
0.231862
0.224639
0.217935
0.211714
0.205938
0.200573
0.195584
0.363951
0.344686
0.328122
0.313611
0.300633
0.288847
0.278026
0.268025
0.258744
0.250112
0.242075
0.23459
0.227616
0.221117
0.215061
0.209416
0.204151
0.199239
0.363968
0.344599
0.327873
0.313264
0.300303
0.28864
0.278022
0.268268
0.259249
0.250875
0.243079
0.23581
0.229025
0.222688
0.216768
0.211233
0.206056
0.201211
0.363977
0.344654
0.327979
0.313405
0.300456
0.288784
0.278141
0.268352
0.259294
0.250881
0.243047
0.235742
0.228924
0.222556
0.216606
0.211044
0.205842
0.200976
0.363945
0.344776
0.328303
0.313791
0.300707
0.288737
0.277696
0.267462
0.257953
0.249109
0.240879
0.233221
0.226093
0.219458
0.21328
0.207525
0.202162
0.197163
0.36385
0.34466
0.328022
0.313075
0.299363
0.286685
0.274927
0.264022
0.253917
0.244561
0.235905
0.227895
0.220485
0.213627
0.207276
0.20139
0.195931
0.190865
0.363526
0.343612
0.325922
0.309717
0.294766
0.280993
0.268326
0.2567
0.246045
0.236282
0.227337
0.219136
0.211607
0.204685
0.198312
0.192435
0.187009
0.181994
0.362718
0.340667
0.320634
0.302336
0.285759
0.270821
0.25738
0.245274
0.234349
0.224465
0.215499
0.207347
0.199915
0.193123
0.186901
0.181188
0.175932
0.171091
0.361054
0.334754
0.311028
0.290183
0.272082
0.256325
0.242514
0.230321
0.219482
0.209789
0.201077
0.193211
0.186081
0.179596
0.173677
0.16826
0.163291
0.158724
0.358081
0.324784
0.296395
0.273162
0.254067
0.238068
0.224405
0.212558
0.20216
0.192949
0.184727
0.177345
0.170681
0.164639
0.15914
0.154119
0.149521
0.145304
0.353253
0.309491
0.276156
0.251345
0.232125
0.216586
0.203602
0.1925
0.18285
0.174358
0.166815
0.160067
0.153993
0.148498
0.143506
0.138953
0.134789
0.130975
0.345561
0.286889
0.249499
0.22457
0.206301
0.191943
0.180132
0.170127
0.161482
0.153907
0.1472
0.141213
0.135832
0.130971
0.126558
0.122537
0.118862
0.115502
0.332243
0.253174
0.214551
0.191586
0.175466
0.163026
0.15288
0.144327
0.136962
0.130522
0.12483
0.119754
0.115197
0.111083
0.107351
0.103952
0.100843
0.0980116
0.303309
0.199077
0.16534
0.147246
0.134886
0.125427
0.11774
0.111277
0.105722
0.100872
0.0965901
0.0927749
0.0893516
0.0862621
0.08346
0.0809088
0.0785714
0.0764557
0.208972
0.0972148
0.0822921
0.0759345
0.0720693
0.0692714
0.0670606
0.0652201
0.0636332
0.0622318
0.0609729
0.0598274
0.0587753
0.0578018
0.0568956
0.0560499
0.0552506
0.0545124
0.000417034
0.000527418
0.000663882
0.000806843
0.000935932
0.00104282
0.00112818
0.00119348
0.00124629
0.0013023
0.00139259
0.00154764
0.00175023
0.00198918
0.00226159
0.0025679
0.00290895
0.00328492
0.00369473
0.00413633
0.00460597
0.0050992
0.00561072
0.00613535
0.00666765
0.00720285
0.00773627
0.00826417
0.00878291
0.00929032
0.00978268
0.0102576
0.0107135
0.0111496
0.0115649
0.0119594
0.0123322
0.0126837
0.0130133
0.0133213
0.0136071
0.0138711
0.014113
0.0143333
0.014532
0.0147102
0.0148691
0.0150129
0.0151388
0.0152486
0.0153423
0.0154205
0.0154832
0.0155308
0.0155608
0.0155816
0.0155832
0.0155777
0.0155526
0.0155154
0.0154647
0.0154015
0.0153255
0.0152375
0.0151378
0.0150267
0.0149046
0.0147706
0.0146257
0.0144724
0.0143098
0.0141386
0.0139593
0.0137724
0.0135785
0.013378
0.0131718
0.0129601
0.0127437
0.0125231
0.012299
0.0120718
0.0118424
0.0116114
0.0113799
0.0111496
0.0109265
0.0107385
0.0106535
0.0106457
0.0106553
0.0106671
0.0106775
0.0106855
0.010691
0.0106939
0.0106949
0.0106937
0.0106902
0.0106846
0.0106769
0.0106672
0.0106555
0.0106426
0.0106283
0.0106125
0.0105954
0.0105769
0.010557
0.0105359
0.0105136
0.01049
0.0104653
0.0104395
0.0104126
0.0103846
0.0103557
0.0103259
0.0102952
0.0102636
0.010231
0.0101974
0.010163
0.0101277
0.0100915
0.0100544
0.0100165
0.00997779
0.00993825
0.00989797
0.00985709
0.00981563
0.00977364
0.00973111
0.00968808
0.00964456
0.00960054
0.00955609
0.00951115
0.0094655
0.00941916
0.00937231
0.00932516
0.00927784
0.00923047
0.00918312
0.00913584
0.00908868
0.00904167
0.00899485
0.00894826
0.00890193
0.0088559
0.0088102
0.00876486
0.00871987
0.00867525
0.00863098
0.00858707
0.00854349
0.0085002
0.00845713
0.00841424
0.00837145
0.00832864
0.00828564
0.00824223
0.0081981
0.00815285
0.00810596
0.00805664
0.00800399
0.0079465
0.00788232
0.00780924
0.00771992
0.00762064
0.00746247
0.00732178
0.0068678
0.000771275
0.000863096
0.00114177
0.0014327
0.00169927
0.00194246
0.00216843
0.00238632
0.00260372
0.00282798
0.00306654
0.00332494
0.00360418
0.0039044
0.00422639
0.00457133
0.00493992
0.00533222
0.00574766
0.0061856
0.00664409
0.00712105
0.00761415
0.0081213
0.00864043
0.00916985
0.00970794
0.0102534
0.0108035
0.0113569
0.0119122
0.0124683
0.0130242
0.0135789
0.0141316
0.0146813
0.015227
0.0157679
0.016303
0.0168316
0.0173512
0.0178608
0.0183588
0.0188438
0.019314
0.0197678
0.0202036
0.0206204
0.0210231
0.0214112
0.0217839
0.0221406
0.0224806
0.0228032
0.0231076
0.0233939
0.0236606
0.0239081
0.0241353
0.0243423
0.0245287
0.0246945
0.0248395
0.0249639
0.0250677
0.0251511
0.0252143
0.0252543
0.0252709
0.025271
0.0252518
0.025214
0.0251581
0.0250846
0.0249941
0.0248873
0.0247649
0.0246276
0.0244761
0.0243113
0.0241339
0.0239448
0.0237448
0.0235348
0.0233159
0.0230896
0.0228588
0.0226298
0.0224111
0.0221998
0.0219879
0.0217723
0.021552
0.0213271
0.0210982
0.0208656
0.02063
0.0203917
0.0201511
0.0199088
0.0196651
0.0194204
0.019175
0.0189292
0.0186834
0.0184379
0.0181928
0.0179484
0.0177049
0.0174625
0.0172214
0.0169816
0.0167435
0.0165071
0.0162725
0.0160398
0.0158098
0.0155822
0.0153571
0.0151342
0.0149138
0.0146957
0.0144801
0.014267
0.0140565
0.0138486
0.0136433
0.0134407
0.0132407
0.0130437
0.0128497
0.0126589
0.0124711
0.0122864
0.0121047
0.0119259
0.0117501
0.0115774
0.0114075
0.01124
0.0110751
0.0109132
0.0107543
0.0105986
0.0104461
0.0102967
0.0101504
0.0100072
0.00986713
0.00973008
0.00959608
0.00946511
0.00933715
0.00921215
0.00909007
0.00897085
0.00885441
0.0087407
0.00862969
0.00852132
0.0084154
0.00831195
0.00821092
0.00811226
0.00801589
0.00792173
0.00782968
0.00773962
0.0076514
0.00756488
0.00747977
0.00739606
0.00731297
0.00723095
0.00714841
0.00706531
0.00698396
0.00689099
0.00681246
0.00662916
0.00114318
0.00141492
0.00190235
0.00234513
0.00273795
0.0031012
0.00345001
0.00379457
0.00414167
0.00449587
0.0048603
0.00523696
0.00562694
0.00603139
0.0064519
0.00689031
0.00734832
0.00782711
0.00832696
0.00884735
0.00938755
0.00994658
0.0105231
0.0111158
0.0117229
0.0123428
0.0129736
0.0136134
0.0142604
0.0149127
0.0155689
0.0162272
0.0168864
0.0175451
0.0182019
0.0188557
0.0195052
0.0201494
0.020787
0.0214168
0.0220376
0.0226482
0.0232475
0.0238342
0.0244074
0.0249662
0.02551
0.0260383
0.0265504
0.0270454
0.0275223
0.02798
0.0284175
0.0288339
0.0292282
0.0295998
0.0299477
0.0302714
0.0305702
0.0308438
0.0310916
0.0313136
0.0315094
0.0316791
0.0318227
0.0319402
0.0320318
0.0320974
0.0321349
0.0321474
0.0321363
0.0321018
0.0320443
0.0319645
0.0318631
0.031741
0.0315989
0.0314379
0.0312588
0.0310626
0.0308504
0.0306231
0.0303819
0.0301279
0.0298625
0.0295874
0.0293052
0.0290193
0.028733
0.0284455
0.0281545
0.0278586
0.0275574
0.0272509
0.0269396
0.0266241
0.026305
0.0259828
0.0256581
0.0253314
0.0250033
0.0246741
0.0243443
0.0240143
0.0236845
0.0233552
0.0230268
0.0226994
0.0223734
0.0220491
0.0217265
0.021406
0.0210877
0.0207719
0.0204585
0.0201479
0.0198402
0.0195356
0.0192341
0.0189358
0.0186407
0.0183489
0.0180604
0.0177755
0.017494
0.0172161
0.0169418
0.0166711
0.0164041
0.0161411
0.0158823
0.0156277
0.015377
0.0151304
0.0148878
0.0146491
0.0144144
0.0141837
0.0139569
0.0137339
0.0135148
0.0132997
0.0130887
0.0128817
0.0126789
0.0124801
0.0122853
0.0120946
0.0119078
0.0117249
0.011546
0.0113711
0.0112001
0.0110329
0.0108696
0.01071
0.0105541
0.0104018
0.0102531
0.010108
0.00996645
0.00982837
0.00969364
0.00956217
0.0094339
0.00930875
0.00918662
0.00906742
0.00895102
0.00883732
0.00872614
0.00861749
0.00851091
0.00840688
0.00830426
0.00820421
0.00810685
0.00800831
0.00792369
0.00775986
0.00136898
0.00200522
0.00271415
0.00329423
0.00379113
0.00424317
0.00467343
0.00509598
0.00551932
0.00594839
0.006386
0.00683392
0.00729363
0.00776685
0.00825553
0.00876172
0.00928713
0.00983293
0.0103996
0.010987
0.0115943
0.0122205
0.012864
0.0135233
0.0141964
0.0148815
0.0155768
0.0162804
0.0169908
0.0177064
0.0184256
0.0191472
0.01987
0.0205927
0.0213142
0.0220333
0.0227491
0.0234603
0.0241659
0.0248648
0.0255556
0.0262373
0.0269088
0.0275688
0.0282162
0.0288499
0.0294689
0.0300717
0.0306572
0.0312241
0.0317709
0.0322964
0.0327994
0.0332786
0.0337329
0.0341615
0.0345632
0.0349373
0.035283
0.0355998
0.0358872
0.0361448
0.0363724
0.0365698
0.0367372
0.0368745
0.0369819
0.0370597
0.0371066
0.0371238
0.0371139
0.0370768
0.0370132
0.0369239
0.0368097
0.0366715
0.0365105
0.0363276
0.0361239
0.0359006
0.0356587
0.0353996
0.0351244
0.0348345
0.0345314
0.0342168
0.0338929
0.0335619
0.0332256
0.0328846
0.0325382
0.032186
0.031828
0.0314645
0.031096
0.0307231
0.0303463
0.0299665
0.029584
0.0291997
0.0288139
0.0284273
0.0280402
0.0276532
0.0272666
0.0268809
0.0264964
0.0261135
0.0257323
0.0253532
0.0249765
0.0246022
0.0242308
0.0238622
0.0234968
0.0231346
0.0227759
0.0224208
0.0220693
0.0217217
0.0213778
0.0210379
0.0207019
0.0203701
0.0200424
0.0197189
0.0193996
0.0190846
0.018774
0.0184678
0.0181662
0.0178692
0.0175769
0.0172891
0.017006
0.0167275
0.0164535
0.0161842
0.0159195
0.0156593
0.0154038
0.0151531
0.0149071
0.0146658
0.0144291
0.014197
0.0139695
0.0137465
0.013528
0.013314
0.0131047
0.0128999
0.0126996
0.0125037
0.0123121
0.0121247
0.0119416
0.0117627
0.0115879
0.0114172
0.0112506
0.0110879
0.0109291
0.0107741
0.0106228
0.0104752
0.0103311
0.0101906
0.0100534
0.00991955
0.00978893
0.00966155
0.00953719
0.0094162
0.00929811
0.00918393
0.00907434
0.00896642
0.008882
0.00872595
0.00148096
0.00257602
0.00349486
0.0041995
0.00478597
0.00530747
0.00579453
0.0062658
0.00673296
0.00720325
0.0076812
0.00816986
0.00867164
0.00918874
0.0097232
0.0102768
0.0108507
0.0114457
0.0120618
0.0126983
0.0133543
0.0140285
0.0147192
0.0154249
0.016144
0.0168747
0.0176155
0.0183651
0.0191219
0.0198848
0.0206526
0.0214241
0.0221981
0.0229737
0.0237498
0.0245252
0.0252989
0.0260696
0.0268362
0.0275973
0.0283518
0.0290983
0.0298353
0.0305615
0.0312754
0.0319756
0.0326604
0.0333284
0.0339778
0.0346071
0.0352147
0.0357991
0.0363587
0.0368922
0.0373984
0.0378759
0.0383237
0.038741
0.0391267
0.0394802
0.0398011
0.0400887
0.0403429
0.0405635
0.0407505
0.040904
0.0410242
0.0411115
0.0411652
0.041186
0.0411763
0.0411363
0.0410667
0.0409685
0.0408427
0.0406903
0.0405124
0.0403104
0.0400852
0.0398383
0.0395708
0.0392842
0.0389797
0.0386589
0.0383232
0.0379744
0.0376142
0.0372445
0.0368667
0.0364817
0.0360899
0.0356914
0.0352867
0.0348762
0.0344604
0.0340401
0.0336158
0.0331884
0.0327585
0.0323267
0.0318935
0.0314597
0.0310257
0.0305919
0.030159
0.0297272
0.0292969
0.0288686
0.0284425
0.0280189
0.0275981
0.0271803
0.0267657
0.0263546
0.025947
0.0255433
0.0251434
0.0247476
0.0243561
0.0239688
0.0235858
0.0232074
0.0228334
0.0224641
0.0220995
0.0217396
0.0213845
0.0210343
0.0206889
0.0203485
0.0200131
0.0196828
0.0193576
0.0190375
0.0187225
0.0184127
0.018108
0.0178084
0.0175139
0.0172246
0.0169403
0.0166612
0.0163873
0.0161185
0.0158547
0.015596
0.0153423
0.0150936
0.0148499
0.0146113
0.0143778
0.0141493
0.0139257
0.0137068
0.0134927
0.0132833
0.0130785
0.0128783
0.0126828
0.0124917
0.0123051
0.0121228
0.0119447
0.0117708
0.0116011
0.0114355
0.0112739
0.0111161
0.0109621
0.010812
0.0106655
0.0105228
0.0103837
0.0102485
0.0101171
0.00999025
0.00986902
0.0097506
0.00965939
0.00950026
0.0019384
0.0031559
0.00421358
0.0050123
0.0056666
0.00623866
0.00676452
0.00726666
0.00775982
0.00825389
0.00875549
0.00926921
0.00979833
0.0103453
0.010912
0.0114995
0.0121087
0.0127396
0.0133916
0.0140639
0.0147555
0.0154649
0.0161909
0.0169321
0.017687
0.0184543
0.0192328
0.0200214
0.0208189
0.0216242
0.0224363
0.0232541
0.0240766
0.0249028
0.0257314
0.0265614
0.0273914
0.0282202
0.0290464
0.0298685
0.030685
0.0314943
0.0322947
0.0330845
0.033862
0.0346253
0.0353725
0.0361018
0.0368112
0.0374989
0.0381631
0.0388021
0.0394141
0.0399976
0.0405511
0.0410734
0.0415631
0.0420193
0.042441
0.0428274
0.043178
0.0434922
0.0437697
0.0440105
0.0442145
0.0443818
0.0445127
0.0446078
0.0446665
0.0446898
0.0446795
0.0446361
0.0445604
0.0444536
0.0443167
0.0441509
0.0439575
0.0437378
0.043493
0.0432246
0.0429339
0.0426224
0.0422915
0.0419427
0.0415777
0.041198
0.0408053
0.0404012
0.0399872
0.0395642
0.0391332
0.0386948
0.0382496
0.0377983
0.0373415
0.0368801
0.0364146
0.035946
0.0354748
0.0350018
0.0345276
0.0340528
0.0335781
0.0331039
0.0326307
0.032159
0.0316891
0.0312215
0.0307565
0.0302944
0.0298354
0.0293799
0.028928
0.02848
0.028036
0.0275963
0.0271609
0.0267301
0.0263039
0.0258824
0.0254659
0.0250542
0.0246476
0.0242461
0.0238498
0.0234586
0.0230728
0.0226923
0.0223171
0.0219474
0.0215832
0.0212245
0.0208713
0.0205237
0.0201817
0.0198452
0.0195144
0.0191891
0.0188694
0.0185553
0.0182467
0.0179437
0.0176462
0.0173542
0.0170678
0.0167868
0.0165112
0.016241
0.0159762
0.0157167
0.0154626
0.0152138
0.0149702
0.0147318
0.0144985
0.0142702
0.0140468
0.0138287
0.0136155
0.0134071
0.0132035
0.0130045
0.01281
0.0126201
0.0124348
0.0122539
0.0120773
0.0119049
0.0117366
0.0115726
0.0114126
0.0112568
0.011105
0.0109576
0.0108146
0.0106766
0.0105447
0.0104168
0.0103118
0.0101573
0.00258217
0.00368154
0.00482548
0.00569276
0.00639647
0.00700544
0.0075592
0.00808322
0.00859462
0.00910531
0.0096236
0.0101552
0.0107041
0.0112729
0.0118632
0.0124759
0.0131111
0.0137685
0.0144474
0.0151469
0.0158661
0.0166038
0.0173588
0.0181301
0.0189164
0.0197168
0.0205303
0.0213558
0.0221925
0.0230393
0.0238953
0.0247594
0.0256305
0.0265075
0.0273892
0.0282742
0.029161
0.0300483
0.0309343
0.0318174
0.0326957
0.0335673
0.0344303
0.0352826
0.0361222
0.0369467
0.0377542
0.0385424
0.0393092
0.0400525
0.0407703
0.0414606
0.0421216
0.0427516
0.0433489
0.0439122
0.0444402
0.0449316
0.0453856
0.0458013
0.0461781
0.0465155
0.0468132
0.0470712
0.0472894
0.047468
0.0476074
0.047708
0.0477701
0.0477943
0.0477822
0.0477344
0.0476521
0.0475363
0.0473883
0.0472094
0.0470009
0.0467643
0.046501
0.0462125
0.0459001
0.0455656
0.0452103
0.0448359
0.0444439
0.0440359
0.0436137
0.0431786
0.0427322
0.0422756
0.0418101
0.0413364
0.0408554
0.040368
0.039875
0.0393771
0.0388753
0.0383701
0.0378626
0.0373532
0.0368428
0.036332
0.0358213
0.0353114
0.0348027
0.0342957
0.0337909
0.0332885
0.0327891
0.0322929
0.0318002
0.0313113
0.0308264
0.0303458
0.0298695
0.0293979
0.0289311
0.0284692
0.0280123
0.0275607
0.0271143
0.0266732
0.0262377
0.0258076
0.0253832
0.0249644
0.0245514
0.0241441
0.0237426
0.023347
0.0229572
0.0225735
0.0221956
0.0218238
0.0214579
0.0210981
0.0207443
0.0203964
0.0200545
0.0197187
0.0193887
0.0190647
0.0187467
0.0184345
0.0181282
0.0178277
0.017533
0.0172441
0.0169609
0.0166834
0.0164115
0.0161452
0.0158845
0.0156292
0.0153793
0.0151348
0.0148955
0.0146615
0.0144327
0.014209
0.0139903
0.0137765
0.0135676
0.0133636
0.0131646
0.0129702
0.0127804
0.0125951
0.0124143
0.012238
0.0120662
0.0118988
0.0117359
0.0115776
0.0114242
0.0112762
0.0111345
0.010998
0.0108791
0.0107255
0.00324472
0.00410613
0.00530095
0.00621948
0.00696077
0.00759843
0.00817472
0.00871712
0.00924437
0.00976969
0.0103024
0.0108491
0.0114141
0.0120003
0.0126091
0.0132412
0.0138965
0.0145747
0.0152752
0.0159973
0.01674
0.0175025
0.0182839
0.0190832
0.0198997
0.0207324
0.0215806
0.0224435
0.02332
0.0242093
0.0251104
0.0260221
0.0269433
0.0278727
0.0288089
0.0297504
0.0306954
0.0316424
0.0325892
0.0335339
0.0344743
0.0354082
0.0363333
0.0372472
0.0381475
0.0390317
0.0398974
0.0407422
0.0415637
0.0423595
0.0431275
0.0438657
0.0445719
0.0452444
0.0458814
0.0464816
0.0470435
0.0475659
0.0480479
0.0484886
0.0488876
0.0492442
0.0495584
0.0498299
0.050059
0.0502458
0.0503908
0.0504945
0.0505574
0.0505805
0.0505649
0.0505114
0.0504211
0.0502955
0.0501359
0.0499437
0.0497203
0.0494672
0.0491861
0.0488783
0.0485456
0.0481894
0.0478114
0.0474132
0.0469963
0.0465625
0.0461133
0.0456502
0.0451747
0.0446883
0.044192
0.0436871
0.0431744
0.042655
0.0421298
0.0415997
0.0410656
0.0405281
0.0399883
0.0394467
0.0389042
0.0383614
0.0378188
0.0372772
0.036737
0.0361987
0.0356628
0.0351297
0.0345997
0.0340733
0.0335506
0.033032
0.0325177
0.0320079
0.031503
0.031003
0.0305081
0.0300184
0.0295342
0.0290555
0.0285825
0.0281151
0.0276537
0.0271981
0.0267485
0.0263049
0.0258675
0.0254362
0.0250111
0.0245923
0.0241797
0.0237735
0.0233736
0.0229801
0.0225929
0.0222122
0.0218378
0.0214697
0.0211081
0.0207528
0.0204038
0.0200611
0.0197247
0.0193945
0.0190706
0.0187528
0.0184411
0.0181356
0.017836
0.0175425
0.0172549
0.0169732
0.0166973
0.0164272
0.0161627
0.0159039
0.0156505
0.0154027
0.0151604
0.0149233
0.0146915
0.0144649
0.0142433
0.0140269
0.0138155
0.013609
0.0134073
0.0132103
0.0130182
0.012831
0.0126485
0.0124707
0.0122976
0.0121295
0.0119667
0.0118095
0.0116587
0.0115139
0.0113826
0.0112274
0.00387511
0.00442084
0.00563648
0.00659299
0.00736363
0.00802479
0.00862111
0.00918097
0.00972401
0.0102641
0.0108113
0.0113725
0.0119524
0.0125538
0.0131782
0.0138266
0.014499
0.0151952
0.0159149
0.0166575
0.0174224
0.0182089
0.0190163
0.019844
0.0206914
0.0215578
0.0224424
0.0233444
0.0242628
0.0251969
0.0261454
0.0271073
0.0280811
0.0290655
0.0300587
0.0310588
0.032064
0.0330721
0.0340809
0.0350879
0.0360906
0.0370864
0.0380728
0.0390469
0.0400061
0.0409475
0.0418686
0.0427666
0.043639
0.0444833
0.0452972
0.0460784
0.0468248
0.0475347
0.0482061
0.0488377
0.0494281
0.049976
0.0504807
0.0509413
0.0513572
0.0517282
0.052054
0.0523347
0.0525705
0.0527616
0.0529087
0.0530123
0.0530733
0.0530925
0.0530712
0.05301
0.0529102
0.0527736
0.0526015
0.0523955
0.052157
0.0518877
0.0515892
0.051263
0.0509109
0.0505343
0.0501351
0.0497149
0.0492752
0.0488177
0.048344
0.0478557
0.0473544
0.0468414
0.0463179
0.0457854
0.0452448
0.0446973
0.0441438
0.0435853
0.0430226
0.0424568
0.0418885
0.0413186
0.0407478
0.0401768
0.0396062
0.0390366
0.0384687
0.0379028
0.0373394
0.0367791
0.0362221
0.0356688
0.0351195
0.0345745
0.0340341
0.0334986
0.032968
0.0324427
0.0319228
0.0314084
0.0308998
0.0303969
0.0299
0.0294092
0.0289245
0.0284461
0.0279739
0.0275082
0.0270488
0.026596
0.0261497
0.02571
0.025277
0.0248505
0.0244308
0.0240178
0.0236115
0.0232119
0.022819
0.0224329
0.0220534
0.0216806
0.0213145
0.020955
0.0206021
0.0202558
0.0199161
0.0195828
0.0192559
0.0189354
0.0186213
0.0183134
0.0180118
0.0177163
0.0174269
0.0171435
0.016866
0.0165945
0.0163287
0.0160686
0.0158142
0.0155653
0.0153219
0.015084
0.0148513
0.0146238
0.0144016
0.0141845
0.0139724
0.0137653
0.0135631
0.0133659
0.0131736
0.0129863
0.0128039
0.0126268
0.0124553
0.0122896
0.0121303
0.0119775
0.0118354
0.011677
0.00443664
0.00463102
0.00584288
0.00682644
0.0076204
0.00830171
0.00891655
0.00949377
0.0100533
0.0106093
0.0111719
0.011748
0.0123426
0.0129586
0.0135981
0.014262
0.0149509
0.0156649
0.0164039
0.0171675
0.0179554
0.0187673
0.0196028
0.0204613
0.0213424
0.0222453
0.0231694
0.0241139
0.0250781
0.0260608
0.0270608
0.0280767
0.0291068
0.0301495
0.0312026
0.032264
0.0333313
0.034402
0.0354735
0.0365429
0.0376074
0.038664
0.0397096
0.0407414
0.0417562
0.042751
0.043723
0.0446692
0.0455871
0.0464739
0.0473273
0.048145
0.0489249
0.0496651
0.0503639
0.0510199
0.0516316
0.0521982
0.0527187
0.0531925
0.0536192
0.0539984
0.0543301
0.0546145
0.0548519
0.0550427
0.0551875
0.0552873
0.0553427
0.0553549
0.0553254
0.0552541
0.055143
0.0549939
0.0548083
0.0545878
0.054334
0.0540485
0.0537329
0.053389
0.0530184
0.0526228
0.0522039
0.0517633
0.0513028
0.0508239
0.0503284
0.0498177
0.0492934
0.048757
0.0482099
0.0476533
0.0470884
0.0465164
0.0459383
0.0453551
0.0447678
0.0441773
0.0435844
0.0429899
0.0423945
0.041799
0.0412041
0.0406102
0.0400181
0.0394281
0.0388409
0.0382567
0.0376761
0.0370993
0.0365267
0.0359586
0.0353953
0.034837
0.0342839
0.0337362
0.0331942
0.0326579
0.0321276
0.0316033
0.0310852
0.0305735
0.0300681
0.0295692
0.029077
0.0285914
0.0281125
0.0276404
0.0271751
0.0267167
0.0262652
0.0258207
0.0253832
0.0249527
0.0245291
0.0241126
0.0237032
0.0233007
0.0229053
0.0225168
0.0221353
0.0217607
0.021393
0.0210322
0.0206782
0.020331
0.0199905
0.0196566
0.0193293
0.0190086
0.0186944
0.0183865
0.018085
0.0177898
0.0175007
0.0172177
0.0169408
0.0166698
0.0164046
0.0161452
0.0158915
0.0156434
0.0154008
0.0151636
0.0149318
0.0147053
0.0144841
0.0142679
0.0140569
0.0138509
0.0136501
0.0134544
0.0132638
0.0130786
0.012899
0.0127254
0.012558
0.0123976
0.012246
0.0120833
0.00490114
0.00475017
0.00593748
0.00693892
0.0077516
0.00845067
0.00908307
0.00967794
0.010255
0.0108281
0.0114072
0.0119994
0.0126098
0.0132418
0.0138976
0.0145787
0.015286
0.0160199
0.0167806
0.0175683
0.0183829
0.0192243
0.0200921
0.0209859
0.0219054
0.0228501
0.0238194
0.0248123
0.0258279
0.0268649
0.0279217
0.0289966
0.0300877
0.0311926
0.0323089
0.0334341
0.0345653
0.0356995
0.0368336
0.0379644
0.0390887
0.0402031
0.0413042
0.0423889
0.0434538
0.0444957
0.0455116
0.0464986
0.0474538
0.0483747
0.0492589
0.050104
0.0509082
0.0516695
0.0523864
0.0530576
0.0536819
0.0542583
0.0547862
0.055265
0.0556946
0.0560746
0.0564054
0.056687
0.05692
0.057105
0.0572427
0.0573341
0.0573802
0.0573818
0.0573411
0.0572568
0.0571323
0.0569692
0.056769
0.0565332
0.0562637
0.0559619
0.0556297
0.0552687
0.0548807
0.0544673
0.0540302
0.0535712
0.053092
0.0525941
0.0520791
0.0515488
0.0510047
0.0504482
0.0498806
0.0493034
0.0487179
0.048125
0.047526
0.046922
0.0463137
0.0457023
0.0450884
0.044473
0.0438569
0.0432406
0.0426249
0.0420104
0.0413977
0.0407872
0.0401795
0.039575
0.038974
0.0383771
0.0377844
0.0371964
0.0366132
0.0360351
0.0354625
0.0348953
0.034334
0.0337786
0.0332293
0.0326862
0.0321495
0.0316194
0.0310958
0.0305789
0.0300688
0.0295657
0.0290694
0.0285802
0.0280981
0.027623
0.0271552
0.0266945
0.0262411
0.025795
0.0253561
0.0249245
0.0245002
0.0240832
0.0236735
0.023271
0.0228757
0.0224876
0.0221067
0.0217328
0.0213661
0.0210064
0.0206536
0.0203078
0.0199688
0.0196365
0.019311
0.0189921
0.0186798
0.0183739
0.0180744
0.0177813
0.0174943
0.0172135
0.0169388
0.01667
0.0164071
0.01615
0.0158985
0.0156527
0.0154123
0.0151775
0.014948
0.0147239
0.014505
0.0142913
0.0140829
0.0138798
0.0136819
0.0134896
0.0133029
0.0131222
0.0129478
0.0127802
0.0126201
0.0124528
0.00524407
0.00477832
0.00592873
0.00694196
0.00777353
0.00849168
0.00914328
0.0097573
0.0103531
0.0109448
0.0115423
0.012153
0.0127821
0.0134332
0.0141091
0.0148116
0.0155419
0.0163009
0.0170893
0.0179074
0.0187552
0.0196328
0.0205403
0.0214773
0.0224436
0.0234386
0.0244616
0.0255113
0.0265864
0.0276852
0.0288058
0.029946
0.0311032
0.0322746
0.0334574
0.0346483
0.035844
0.037041
0.0382358
0.0394247
0.0406042
0.0417706
0.0429203
0.0440499
0.045156
0.0462353
0.0472848
0.0483014
0.0492826
0.0502258
0.0511287
0.0519893
0.0528056
0.0535762
0.0542995
0.0549744
0.0556
0.0561756
0.0567006
0.0571748
0.057598
0.0579703
0.058292
0.0585634
0.0587853
0.0589583
0.0590832
0.0591612
0.0591933
0.0591809
0.059125
0.0590254
0.0588853
0.0587064
0.0584903
0.0582386
0.0579529
0.0576349
0.0572864
0.0569091
0.0565047
0.0560748
0.0556213
0.0551458
0.0546499
0.0541354
0.0536038
0.0530568
0.0524958
0.0519223
0.0513378
0.0507435
0.0501408
0.0495308
0.0489146
0.0482934
0.0476679
0.0470393
0.0464084
0.0457758
0.0451426
0.0445092
0.0438765
0.0432449
0.0426152
0.0419877
0.041363
0.0407415
0.0401237
0.0395098
0.0389003
0.0382955
0.0376955
0.0371008
0.0365115
0.0359278
0.03535
0.0347781
0.0342125
0.0336533
0.0331005
0.0325544
0.032015
0.0314825
0.0309569
0.0304384
0.029927
0.0294228
0.0289258
0.0284362
0.0279539
0.0274791
0.0270117
0.0265517
0.0260993
0.0256544
0.0252169
0.024787
0.0243646
0.0239496
0.0235421
0.023142
0.0227493
0.0223639
0.0219859
0.0216151
0.0212514
0.0208949
0.0205454
0.0202029
0.0198674
0.0195386
0.0192167
0.0189014
0.0185926
0.0182904
0.0179946
0.0177051
0.0174218
0.0171446
0.0168735
0.0166083
0.016349
0.0160954
0.0158476
0.0156053
0.0153685
0.0151372
0.0149114
0.0146908
0.0144757
0.014266
0.0140617
0.0138629
0.0136699
0.0134829
0.0133022
0.0131282
0.012961
0.0127893
0.00546839
0.00475885
0.00587477
0.00689345
0.00773395
0.00846306
0.00912787
0.00975788
0.0103737
0.0109868
0.0116061
0.0122394
0.0128922
0.0135684
0.0142713
0.0150029
0.0157648
0.0165583
0.0173841
0.0182428
0.0191349
0.0200606
0.0210201
0.022013
0.0230388
0.0240968
0.0251856
0.0263036
0.0274489
0.0286193
0.029812
0.0310244
0.032253
0.0334947
0.0347456
0.0360022
0.0372604
0.0385165
0.0397664
0.0410062
0.042232
0.0434402
0.0446269
0.0457888
0.0469224
0.0480247
0.0490927
0.0501237
0.0511152
0.052065
0.0529709
0.0538313
0.0546445
0.0554093
0.0561245
0.0567893
0.0574029
0.057965
0.0584752
0.0589334
0.0593397
0.0596945
0.0599981
0.0602511
0.0604542
0.0606084
0.0607144
0.0607735
0.0607868
0.0607568
0.0606816
0.0605638
0.0604059
0.0602095
0.0599763
0.0597077
0.0594055
0.0590714
0.0587071
0.0583143
0.0578946
0.0574498
0.0569815
0.0564915
0.0559813
0.0554527
0.0549071
0.0543462
0.0537715
0.0531843
0.0525862
0.0519783
0.0513621
0.0507386
0.050109
0.0494743
0.0488355
0.0481934
0.0475491
0.0469032
0.0462566
0.0456099
0.0449638
0.0443188
0.0436756
0.0430347
0.0423965
0.0417615
0.0411301
0.0405027
0.0398795
0.039261
0.0386474
0.038039
0.037436
0.0368386
0.0362471
0.0356616
0.0350824
0.0345096
0.0339433
0.0333837
0.0328309
0.032285
0.0317462
0.0312146
0.0306901
0.030173
0.0296633
0.0291611
0.0286664
0.0281792
0.0276996
0.0272277
0.0267635
0.0263069
0.025858
0.0254168
0.0249832
0.0245574
0.0241391
0.0237285
0.0233255
0.02293
0.0225419
0.0221613
0.0217881
0.0214222
0.0210635
0.020712
0.0203676
0.0200302
0.0196997
0.019376
0.0190591
0.0187489
0.0184452
0.018148
0.0178572
0.0175726
0.0172943
0.017022
0.0167557
0.0164953
0.0162407
0.0159918
0.0157486
0.015511
0.0152789
0.0150523
0.0148312
0.0146156
0.0144056
0.0142012
0.0140025
0.0138099
0.0136236
0.0134439
0.0132705
0.0130947
0.0055662
0.00469154
0.00575967
0.00678021
0.0076343
0.00838062
0.00906504
0.00971627
0.0103524
0.010988
0.0116336
0.0122962
0.0129813
0.013693
0.0144343
0.0152078
0.0160153
0.0168582
0.0177378
0.0186547
0.0196094
0.0206023
0.0216329
0.0227008
0.0238048
0.0249434
0.0261145
0.0273158
0.0285444
0.0297973
0.0310709
0.0323615
0.0336652
0.0349777
0.0362948
0.0376124
0.0389261
0.0402316
0.0415248
0.0428018
0.0440586
0.0452915
0.0464972
0.0476722
0.0488136
0.0499186
0.0509846
0.0520093
0.0529906
0.0539266
0.0548158
0.0556567
0.0564483
0.0571894
0.0578794
0.0585177
0.059104
0.059638
0.0601198
0.0605495
0.0609273
0.0612538
0.0615295
0.0617551
0.0619314
0.0620594
0.0621402
0.0621749
0.0621651
0.0621119
0.0620138
0.061875
0.0616971
0.0614815
0.0612298
0.0609437
0.0606248