/*--------------------------------*- C++ -*----------------------------------*\
| =========                 |                                                 |
| \\      /  F ield         | OpenFOAM: The Open Source CFD Toolbox           |
|  \\    /   O peration     | Version:  2112                                  |
|   \\  /    A nd           | Website:  www.openfoam.com                      |
|    \\/     M anipulation  |                                                 |
\*---------------------------------------------------------------------------*/
FoamFile
{
    version     2.0;
    format      ascii;
    arch        "LSB;label=32;scalar=64";
    class       volScalarField;
    location    "200";
    object      nut;
}
// * * * * * * * * * * * * * * * * * * * * * * * * * * * * * * * * * * * * * //

dimensions      [0 2 -1 0 0 0 0];

internalField   nonuniform List<scalar> 
12225
(
1.57487e-05
1.07746e-05
9.97944e-06
9.62383e-06
9.4107e-06
9.25888e-06
9.13978e-06
9.04118e-06
8.95678e-06
8.88316e-06
8.81857e-06
8.76232e-06
8.71474e-06
8.67724e-06
8.65312e-06
8.65439e-06
8.68795e-06
8.78527e-06
0.000127891
9.26325e-05
8.31776e-05
7.56489e-05
6.96147e-05
6.46068e-05
6.03648e-05
5.67167e-05
5.35443e-05
5.07619e-05
4.83045e-05
4.61215e-05
4.4173e-05
4.2427e-05
4.08635e-05
3.94491e-05
3.8149e-05
3.74002e-05
0.000295862
0.000209486
0.000188695
0.000174265
0.000162754
0.000153068
0.000144712
0.000137393
0.000130918
0.00012515
0.000119986
0.000115347
0.000111174
0.000107424
0.000104088
0.000101152
9.87337e-05
9.7053e-05
0.000457036
0.00032902
0.000295145
0.000274663
0.000259017
0.000245957
0.000234643
0.000224658
0.000215746
0.000207739
0.000200513
0.000193977
0.000188067
0.000182742
0.000178008
0.000173889
0.000170586
0.000168035
0.000587638
0.000441097
0.000395587
0.000369636
0.000350608
0.000334999
0.00032153
0.000309621
0.00029895
0.000289314
0.000280573
0.000272629
0.000265415
0.000258893
0.000253071
0.000247994
0.000243841
0.000240539
0.000683914
0.000540586
0.000487515
0.000457063
0.000435272
0.000417683
0.000402615
0.000389317
0.000377387
0.000366583
0.000356749
0.000347777
0.000339598
0.000332171
0.000325502
0.000319632
0.000314685
0.000310622
0.000750131
0.000625041
0.000569422
0.000536024
0.00051218
0.000493113
0.000476889
0.000462615
0.000449812
0.000438201
0.000427606
0.000417909
0.000409036
0.000400943
0.000393626
0.000387113
0.000381475
0.000376682
0.000792501
0.000694443
0.000640294
0.000605908
0.000580929
0.00056094
0.000544008
0.000529122
0.000515761
0.000503624
0.000492525
0.000482349
0.000473009
0.000464452
0.000456663
0.000449652
0.000443451
0.000438025
0.000819236
0.000747534
0.000699435
0.000666249
0.000641283
0.000621115
0.000603923
0.000588778
0.000575161
0.000562768
0.000551408
0.000540953
0.000531322
0.000522462
0.000514347
0.000506973
0.000500344
0.000494415
0.000835309
0.000786298
0.000746828
0.000716797
0.000693077
0.000673424
0.000656472
0.000641439
0.000627866
0.00061547
0.000604071
0.000593548
0.000583818
0.000574829
0.00056655
0.000558966
0.00055206
0.000545785
0.000844418
0.00081315
0.000783074
0.000757593
0.000736185
0.000717802
0.000701623
0.0006871
0.000673882
0.00066174
0.000650522
0.000640121
0.000630465
0.000621504
0.000613206
0.000605548
0.000598505
0.000592029
0.000848778
0.000829145
0.000807084
0.000786389
0.000767831
0.000751232
0.000736241
0.000722556
0.000709958
0.000698292
0.000687443
0.00067733
0.000667897
0.000659102
0.000650914
0.000643311
0.000636263
0.000629728
0.000850976
0.000839409
0.000824205
0.000808279
0.000792905
0.000778471
0.000765007
0.000752445
0.000740705
0.000729712
0.000719401
0.000709724
0.000700643
0.000692129
0.000684158
0.000676709
0.000669756
0.00066326
0.00085184
0.000845737
0.000836446
0.000825435
0.000813807
0.000802125
0.000790712
0.000779747
0.000769271
0.000759296
0.000749811
0.000740816
0.0007323
0.000724253
0.000716661
0.00070951
0.000702782
0.000696447
0.000851766
0.000848447
0.000843286
0.000836489
0.000828598
0.000820095
0.000811304
0.00080242
0.000793616
0.000785017
0.000776688
0.000768671
0.000760982
0.000753629
0.000746613
0.000739937
0.000733593
0.000727567
0.000851214
0.000848519
0.000845429
0.000841473
0.000836593
0.000830994
0.000824865
0.000818368
0.000811652
0.000804824
0.000797999
0.000791246
0.000784624
0.000778173
0.000771925
0.000765897
0.000760097
0.000754528
0.000850591
0.000847328
0.000844617
0.000841946
0.000838954
0.000835479
0.000831499
0.000827074
0.000822286
0.000817226
0.00081197
0.000806594
0.000801166
0.000795742
0.000790368
0.000785081
0.000779909
0.000774874
0.000850207
0.000846295
0.000843274
0.000840787
0.000838444
0.000835964
0.000833177
0.000830012
0.000826455
0.000822545
0.00081834
0.000813905
0.000809308
0.000804609
0.000799862
0.00079511
0.000790386
0.000785714
0.000850316
0.000846555
0.000843576
0.000841016
0.000838501
0.00083579
0.000832742
0.000829307
0.000825491
0.000821339
0.000816915
0.000812284
0.000807505
0.000802637
0.000797729
0.000792823
0.000787956
0.000783162
0.000850998
0.000848082
0.000845104
0.00084161
0.000837414
0.000832559
0.000827199
0.000821459
0.000815453
0.000809275
0.000802996
0.00079668
0.000790387
0.000784168
0.000778056
0.000772081
0.000766262
0.000760618
0.000851697
0.000848095
0.000842729
0.000835858
0.000828003
0.000819617
0.000810951
0.000802171
0.000793436
0.000784848
0.000776468
0.000768326
0.000760451
0.000752862
0.000745561
0.000738549
0.000731826
0.000725394
0.000851317
0.000842295
0.000830046
0.000816639
0.000803225
0.000790199
0.000777703
0.000765815
0.000754545
0.000743862
0.000733738
0.00072415
0.000715053
0.000706408
0.000698192
0.000690384
0.000682967
0.000675932
0.000847117
0.000823681
0.000799267
0.000777182
0.000757723
0.000740497
0.000725053
0.000711006
0.000698062
0.000686043
0.000674824
0.000664315
0.000654443
0.000645147
0.000636379
0.000628102
0.000620288
0.000612918
0.000833538
0.000783273
0.000743698
0.000713686
0.000690053
0.000670443
0.000653484
0.00063839
0.00062469
0.0006121
0.000600439
0.000589582
0.000579438
0.000569933
0.00056101
0.000552622
0.000544736
0.000537334
0.00080052
0.000711973
0.000660151
0.000626302
0.000601382
0.000581423
0.000564409
0.000549362
0.000535764
0.000523315
0.000511825
0.000501166
0.000491241
0.000481977
0.000473311
0.000465194
0.00045759
0.000450489
0.000732543
0.000603592
0.000549676
0.00051754
0.000494491
0.0004759
0.000459982
0.000445886
0.000433158
0.000421532
0.000410834
0.000400942
0.000391766
0.000383231
0.000375278
0.000367854
0.000360924
0.00035449
0.00060651
0.000463028
0.000417595
0.000391485
0.000372276
0.000356417
0.000342641
0.000330373
0.000319292
0.000309198
0.00029995
0.000291442
0.000283592
0.00027633
0.0002696
0.00026335
0.000257542
0.000252196
0.000412935
0.00029932
0.000271231
0.000253179
0.000238949
0.00022689
0.000216341
0.000206965
0.000198549
0.000190943
0.000184034
0.000177733
0.000171969
0.000166681
0.000161819
0.000157338
0.000153199
0.000149433
0.000181852
0.000133348
0.000122059
0.000112577
0.000104806
9.8245e-05
9.25817e-05
8.76304e-05
8.32614e-05
7.93777e-05
7.5905e-05
7.27847e-05
6.99694e-05
6.74199e-05
6.51042e-05
6.29936e-05
6.10625e-05
5.93304e-05
2.15717e-05
1.47132e-05
1.35369e-05
1.30035e-05
1.26683e-05
1.242e-05
1.22202e-05
1.20514e-05
1.19039e-05
1.17721e-05
1.16525e-05
1.15426e-05
1.14407e-05
1.13456e-05
1.12564e-05
1.11725e-05
1.10926e-05
1.10183e-05
1.19909e-06
2.87869e-06
3.22859e-06
3.55928e-06
3.83403e-06
4.0473e-06
4.20994e-06
4.32962e-06
4.42207e-06
4.51354e-06
4.65201e-06
4.89211e-06
5.19605e-06
5.53541e-06
5.89927e-06
6.28363e-06
6.68596e-06
7.10351e-06
7.53274e-06
7.96997e-06
8.41059e-06
8.85021e-06
9.28455e-06
9.7101e-06
1.01237e-05
1.05232e-05
1.09066e-05
1.12729e-05
1.16211e-05
1.19514e-05
1.22631e-05
1.25558e-05
1.28298e-05
1.30859e-05
1.33245e-05
1.35464e-05
1.37521e-05
1.39425e-05
1.41178e-05
1.4279e-05
1.44261e-05
1.45598e-05
1.46804e-05
1.47883e-05
1.4884e-05
1.4968e-05
1.5041e-05
1.51059e-05
1.51612e-05
1.5208e-05
1.52463e-05
1.52766e-05
1.5299e-05
1.53136e-05
1.53155e-05
1.53284e-05
1.5313e-05
1.53005e-05
1.52789e-05
1.52513e-05
1.52168e-05
1.51761e-05
1.5129e-05
1.50757e-05
1.50164e-05
1.49513e-05
1.48805e-05
1.48035e-05
1.47206e-05
1.46333e-05
1.45407e-05
1.44433e-05
1.43412e-05
1.42346e-05
1.41236e-05
1.40086e-05
1.38897e-05
1.37671e-05
1.36411e-05
1.35119e-05
1.33797e-05
1.32448e-05
1.31075e-05
1.29679e-05
1.28267e-05
1.26841e-05
1.25412e-05
1.24022e-05
1.23109e-05
1.22867e-05
1.22793e-05
1.22751e-05
1.22702e-05
1.22639e-05
1.22562e-05
1.22469e-05
1.22365e-05
1.22246e-05
1.22113e-05
1.21967e-05
1.21811e-05
1.21642e-05
1.21459e-05
1.21268e-05
1.21069e-05
1.20861e-05
1.20645e-05
1.2042e-05
1.20186e-05
1.19945e-05
1.19696e-05
1.19439e-05
1.19175e-05
1.18904e-05
1.18626e-05
1.1834e-05
1.18049e-05
1.17752e-05
1.17448e-05
1.17138e-05
1.16822e-05
1.165e-05
1.16171e-05
1.15836e-05
1.15495e-05
1.15149e-05
1.14796e-05
1.14437e-05
1.14072e-05
1.13702e-05
1.13327e-05
1.12947e-05
1.12563e-05
1.12175e-05
1.11782e-05
1.11385e-05
1.10984e-05
1.10578e-05
1.10169e-05
1.09754e-05
1.09334e-05
1.08909e-05
1.0848e-05
1.08049e-05
1.07616e-05
1.07182e-05
1.06746e-05
1.06309e-05
1.05872e-05
1.05435e-05
1.04997e-05
1.04559e-05
1.04122e-05
1.03685e-05
1.03249e-05
1.02813e-05
1.02378e-05
1.01944e-05
1.01511e-05
1.01078e-05
1.00646e-05
1.00214e-05
9.97814e-06
9.93484e-06
9.8914e-06
9.84773e-06
9.8037e-06
9.75913e-06
9.71378e-06
9.66734e-06
9.61934e-06
9.56923e-06
9.51611e-06
9.45885e-06
9.39612e-06
9.32343e-06
9.24442e-06
9.13036e-06
9.01788e-06
8.725e-06
1.62914e-06
3.91782e-06
8.52872e-06
1.31756e-05
1.65897e-05
1.88059e-05
2.02165e-05
2.11863e-05
2.18933e-05
2.23993e-05
2.27259e-05
2.2911e-05
2.30607e-05
2.32353e-05
2.34695e-05
2.37816e-05
2.41781e-05
2.46552e-05
2.52058e-05
2.58762e-05
2.66696e-05
2.75848e-05
2.86195e-05
2.97712e-05
3.10365e-05
3.2412e-05
3.38986e-05
3.54962e-05
3.71933e-05
3.89831e-05
4.08614e-05
4.28222e-05
4.48591e-05
4.69653e-05
4.91342e-05
5.1359e-05
5.36332e-05
5.59505e-05
5.83053e-05
6.06915e-05
6.3095e-05
6.55058e-05
6.79119e-05
7.02976e-05
7.26411e-05
7.49089e-05
7.70413e-05
7.89543e-05
8.08409e-05
8.26965e-05
8.45199e-05
8.63086e-05
8.80605e-05
8.97731e-05
9.14447e-05
9.30801e-05
9.46444e-05
9.61639e-05
9.76416e-05
9.9063e-05
0.000100427
0.000101755
0.00010302
0.00010423
0.000105387
0.000106489
0.000107541
0.00010852
0.000109417
0.000110278
0.000111084
0.000111837
0.000112536
0.000113183
0.000113779
0.000114324
0.00011482
0.000115269
0.000115672
0.000116029
0.000116341
0.00011661
0.000116834
0.000117011
0.000117134
0.00011718
0.000117087
0.000116693
0.000115781
0.000114475
0.000112973
0.000111377
0.000109729
0.000108053
0.000106359
0.000104655
0.000102942
0.000101225
9.95076e-05
9.77933e-05
9.6085e-05
9.43846e-05
9.26931e-05
9.10104e-05
8.93384e-05
8.76789e-05
8.60333e-05
8.44028e-05
8.27884e-05
8.11914e-05
7.96123e-05
7.80523e-05
7.65121e-05
7.49923e-05
7.34935e-05
7.20165e-05
7.05613e-05
6.91294e-05
6.77203e-05
6.63343e-05
6.49717e-05
6.36326e-05
6.23173e-05
6.10261e-05
5.9759e-05
5.85154e-05
5.72952e-05
5.60988e-05
5.49264e-05
5.37791e-05
5.26578e-05
5.15619e-05
5.04907e-05
4.94438e-05
4.84204e-05
4.74202e-05
4.64427e-05
4.54888e-05
4.45524e-05
4.3629e-05
4.27255e-05
4.1845e-05
4.09882e-05
4.01547e-05
3.93438e-05
3.8555e-05
3.77878e-05
3.70416e-05
3.63158e-05
3.56098e-05
3.49234e-05
3.42564e-05
3.36081e-05
3.29782e-05
3.2366e-05
3.17711e-05
3.11927e-05
3.06304e-05
3.00839e-05
2.95527e-05
2.90357e-05
2.85329e-05
2.80441e-05
2.75687e-05
2.71065e-05
2.66567e-05
2.62191e-05
2.57931e-05
2.5378e-05
2.49734e-05
2.45782e-05
2.41926e-05
2.38132e-05
2.34444e-05
2.30729e-05
2.27182e-05
2.23405e-05
2.19808e-05
2.15756e-05
2.05457e-05
1.98579e-06
6.38969e-06
1.53364e-05
2.43148e-05
3.11868e-05
3.59694e-05
3.92096e-05
4.14371e-05
4.30314e-05
4.42343e-05
4.52022e-05
4.60688e-05
4.69231e-05
4.78525e-05
4.89209e-05
5.0178e-05
5.1667e-05
5.34308e-05
5.55021e-05
5.78396e-05
6.04361e-05
6.32872e-05
6.6386e-05
6.97227e-05
7.32852e-05
7.70592e-05
8.10293e-05
8.51777e-05
8.94842e-05
9.39289e-05
9.84923e-05
0.000103155
0.000107899
0.000112705
0.000117557
0.00012244
0.000127337
0.000132235
0.000137121
0.000141979
0.000146795
0.000151552
0.000156232
0.000160816
0.000165278
0.000169582
0.000173719
0.000177696
0.000181571
0.000185349
0.000189027
0.000192603
0.000196072
0.00019943
0.000202673
0.000205796
0.000208789
0.000211657
0.000214401
0.000217014
0.000219496
0.000221848
0.000224057
0.000226157
0.000228131
0.000229974
0.000231682
0.000233261
0.000234672
0.000235949
0.000237112
0.000238156
0.000239079
0.000239886
0.000240577
0.000241157
0.000241628
0.000241993
0.000242256
0.000242419
0.000242485
0.000242455
0.000242327
0.000242097
0.000241752
0.00024126
0.000240555
0.000239514
0.000238013
0.00023609
0.000233872
0.000231458
0.000228914
0.000226278
0.000223573
0.000220814
0.00021801
0.000215168
0.000212297
0.000209403
0.000206492
0.000203568
0.000200635
0.000197694
0.000194749
0.000191802
0.000188858
0.000185917
0.000182984
0.000180059
0.000177146
0.000174246
0.000171363
0.000168497
0.00016565
0.000162825
0.00016002
0.000157238
0.00015448
0.000151747
0.000149042
0.000146366
0.000143719
0.000141103
0.000138519
0.000135963
0.000133436
0.000130943
0.000128484
0.000126065
0.000123688
0.00012135
0.000119051
0.000116791
0.000114566
0.000112379
0.000110228
0.000108115
0.000106038
0.000103992
0.000101981
0.000100011
9.8081e-05
9.61912e-05
9.43412e-05
9.25297e-05
9.07555e-05
8.90187e-05
8.73185e-05
8.56553e-05
8.40294e-05
8.24407e-05
8.08884e-05
7.93716e-05
7.78897e-05
7.64417e-05
7.50268e-05
7.36446e-05
7.22951e-05
7.09777e-05
6.96928e-05
6.84389e-05
6.72147e-05
6.60191e-05
6.48512e-05
6.371e-05
6.25942e-05
6.15023e-05
6.04325e-05
5.93829e-05
5.83507e-05
5.73344e-05
5.63257e-05
5.53307e-05
5.4315e-05
5.33264e-05
5.22335e-05
5.12146e-05
4.99972e-05
4.69706e-05
2.17554e-06
9.5567e-06
2.24829e-05
3.44958e-05
4.36456e-05
5.01702e-05
5.47885e-05
5.81511e-05
6.07569e-05
6.29613e-05
6.50089e-05
6.70694e-05
6.92609e-05
7.16688e-05
7.43545e-05
7.73617e-05
8.07201e-05
8.44465e-05
8.8532e-05
9.29754e-05
9.77544e-05
0.000102849
0.000108238
0.000113896
0.000119795
0.000125909
0.00013221
0.000138667
0.000145254
0.000151944
0.000158711
0.000165532
0.000172385
0.000179248
0.000186105
0.000192936
0.000199727
0.000206463
0.000213127
0.000219706
0.000226185
0.000232548
0.000238781
0.000244869
0.000250792
0.00025654
0.000262113
0.000267519
0.000272772
0.000277874
0.000282824
0.000287616
0.000292247
0.000296712
0.000301007
0.000305126
0.000309065
0.000312824
0.0003164
0.00031979
0.000322993
0.000326008
0.000328832
0.000331469
0.000333943
0.000336246
0.000338352
0.000340273
0.000341981
0.00034349
0.000344839
0.000346017
0.000347027
0.000347872
0.000348556
0.000349082
0.000349456
0.000349681
0.000349763
0.000349704
0.000349509
0.000349178
0.000348711
0.000348104
0.000347344
0.000346406
0.000345246
0.000343798
0.000342005
0.000339872
0.000337454
0.000334812
0.000331996
0.000329044
0.00032598
0.000322824
0.000319588
0.000316278
0.000312908
0.000309486
0.000306021
0.000302517
0.000298979
0.00029541
0.000291816
0.0002882
0.000284566
0.000280916
0.000277256
0.000273585
0.000269909
0.000266231
0.000262555
0.000258882
0.000255215
0.000251558
0.00024791
0.000244274
0.000240651
0.000237045
0.000233456
0.000229889
0.000226344
0.000222824
0.00021933
0.000215862
0.000212421
0.000209009
0.00020563
0.000202285
0.000198978
0.00019571
0.000192481
0.000189291
0.000186135
0.000183016
0.000179935
0.000176896
0.000173898
0.000170938
0.000168024
0.000165158
0.000162337
0.000159561
0.000156831
0.000154147
0.000151507
0.000148912
0.000146362
0.000143857
0.0001414
0.000138989
0.000136623
0.000134302
0.000132025
0.000129791
0.000127598
0.000125449
0.000123343
0.000121278
0.000119255
0.000117271
0.000115326
0.000113418
0.000111547
0.000109712
0.000107909
0.000106138
0.000104394
0.000102676
0.000100978
9.92972e-05
9.76223e-05
9.5956e-05
9.42549e-05
9.25739e-05
9.07276e-05
8.89894e-05
8.70723e-05
8.23245e-05
2.26204e-06
1.29246e-05
2.91775e-05
4.36311e-05
5.48112e-05
6.30678e-05
6.91866e-05
7.38855e-05
7.77384e-05
8.11728e-05
8.44915e-05
8.79016e-05
9.15408e-05
9.54983e-05
9.98289e-05
0.000104563
0.000109713
0.000115247
0.000121206
0.000127531
0.000134198
0.000141174
0.000148425
0.000155918
0.000163618
0.000171491
0.000179503
0.000187623
0.000195822
0.000204072
0.000212348
0.000220627
0.000228888
0.000237112
0.000245282
0.000253382
0.000261398
0.000269317
0.000277124
0.000284808
0.000292355
0.000299753
0.000306989
0.000314048
0.000320923
0.000327619
0.000334137
0.000340477
0.000346642
0.000352628
0.000358434
0.000364054
0.000369483
0.000374716
0.000379747
0.000384573
0.000389189
0.000393592
0.000397779
0.000401747
0.000405494
0.00040902
0.000412321
0.0004154
0.000418263
0.000420947
0.000423388
0.000425617
0.000427601
0.000429351
0.000430903
0.000432251
0.000433397
0.000434345
0.000435099
0.000435665
0.000436047
0.00043625
0.00043628
0.000436141
0.000435837
0.000435369
0.00043474
0.000433945
0.000432976
0.000431818
0.000430443
0.00042882
0.000426921
0.000424745
0.000422315
0.000419665
0.000416829
0.000413834
0.000410703
0.000407456
0.000404107
0.000400675
0.000397172
0.000393596
0.000389953
0.000386249
0.000382489
0.000378677
0.000374818
0.000370917
0.000366978
0.000363004
0.000358999
0.000354964
0.000350905
0.000346828
0.000342734
0.000338628
0.000334513
0.00033039
0.000326262
0.000322132
0.000318002
0.000313873
0.000309749
0.000305633
0.000301529
0.000297439
0.000293364
0.000289307
0.000285268
0.000281251
0.000277257
0.00027329
0.000269353
0.000265448
0.000261576
0.000257738
0.000253934
0.000250164
0.000246431
0.000242736
0.000239081
0.000235465
0.000231892
0.000228362
0.000224873
0.000221428
0.000218029
0.000214677
0.000211371
0.000208113
0.000204901
0.000201739
0.000198632
0.000195574
0.000192566
0.000189606
0.000186692
0.000183825
0.000181004
0.000178233
0.000175511
0.000172835
0.000170205
0.000167619
0.000165075
0.000162573
0.000160114
0.000157694
0.000155311
0.000152962
0.000150643
0.000148351
0.00014608
0.000143826
0.000141574
0.000139324
0.000137031
0.000134739
0.000132261
0.000129904
0.00012739
0.000121511
2.57458e-06
1.43191e-05
3.33311e-05
5.05407e-05
6.41823e-05
7.44976e-05
8.23761e-05
8.86293e-05
9.39084e-05
9.87047e-05
0.00010337
0.000108145
0.000113185
0.000118584
0.000124392
0.000130627
0.000137245
0.000144333
0.000151792
0.000159595
0.000167705
0.000176085
0.000184695
0.000193498
0.000202455
0.000211531
0.000220694
0.000229913
0.000239158
0.000248406
0.000257633
0.000266821
0.00027595
0.000285004
0.000293967
0.000302828
0.000311578
0.000320205
0.000328698
0.000337049
0.000345247
0.000353283
0.000361147
0.000368832
0.000376337
0.000383661
0.000390802
0.000397758
0.000404527
0.000411105
0.000417487
0.00042367
0.000429648
0.000435414
0.000440965
0.000446296
0.000451402
0.000456279
0.000460924
0.000465334
0.000469507
0.000473441
0.000477134
0.000480586
0.000483797
0.000486808
0.000489565
0.000492085
0.00049435
0.000496363
0.000498156
0.000499722
0.000501066
0.00050219
0.0005031
0.000503802
0.0005043
0.0005046
0.000504706
0.000504624
0.000504359
0.000503912
0.000503286
0.000502481
0.000501493
0.000500313
0.000498929
0.000497325
0.00049549
0.000493422
0.000491131
0.000488634
0.000485952
0.000483104
0.000480107
0.000476976
0.000473725
0.000470361
0.000466896
0.00046334
0.0004597
0.000455981
0.00045219
0.000448332
0.00044441
0.000440431
0.000436397
0.000432314
0.000428187
0.000424026
0.000419832
0.000415603
0.000411343
0.000407054
0.000402738
0.0003984
0.000394041
0.000389664
0.000385272
0.000380865
0.00037645
0.00037203
0.000367607
0.000363186
0.000358768
0.000354356
0.000349953
0.000345559
0.000341179
0.000336816
0.000332472
0.000328151
0.000323854
0.000319584
0.000315343
0.000311131
0.000306951
0.000302804
0.000298693
0.000294618
0.000290582
0.000286586
0.000282631
0.000278717
0.000274847
0.000271021
0.000267242
0.000263509
0.000259817
0.000256171
0.000252575
0.000249029
0.000245533
0.000242084
0.000238682
0.000235327
0.00023202
0.00022877
0.000225571
0.00022242
0.000219315
0.000216255
0.000213239
0.00021027
0.000207345
0.000204463
0.000201619
0.00019881
0.000196031
0.000193281
0.000190553
0.00018784
0.000185128
0.00018241
0.000179652
0.000176871
0.000173932
0.000170935
0.000168078
0.000161745
2.97394e-06
1.43896e-05
3.52665e-05
5.53022e-05
7.15051e-05
8.41568e-05
9.40279e-05
0.000102019
0.000108858
0.000115092
0.000121119
0.000127209
0.000133538
0.000140207
0.000147231
0.000154647
0.000162538
0.000170794
0.000179381
0.000188264
0.000197404
0.00020676
0.000216291
0.000225958
0.000235725
0.000245557
0.000255423
0.000265297
0.000275152
0.000284962
0.000294715
0.000304396
0.00031399
0.000323485
0.000332876
0.000342158
0.000351307
0.000360312
0.000369164
0.000377859
0.000386392
0.000394761
0.000402966
0.000411005
0.000418873
0.000426566
0.000434081
0.000441414
0.000448562
0.00045552
0.000462282
0.000468844
0.0004752
0.000481344
0.000487271
0.000492975
0.000498453
0.000503698
0.000508709
0.00051348
0.000518009
0.000522294
0.000526332
0.000530122
0.000533665
0.000536991
0.000540055
0.000542874
0.000545434
0.00054774
0.000549811
0.000551642
0.000553237
0.000554601
0.00055574
0.000556657
0.000557358
0.000557848
0.000558134
0.000558218
0.000558107
0.000557803
0.000557311
0.000556631
0.000555764
0.000554705
0.000553451
0.000551996
0.000550334
0.000548466
0.000546397
0.000544136
0.000541696
0.00053909
0.000536329
0.000533427
0.000530393
0.000527236
0.000523965
0.000520588
0.000517112
0.000513544
0.000509889
0.000506151
0.000502336
0.000498448
0.000494492
0.000490471
0.000486388
0.000482247
0.000478054
0.000473811
0.000469523
0.000465192
0.000460821
0.000456414
0.000451973
0.000447501
0.000443002
0.000438486
0.000433952
0.000429399
0.000424831
0.000420251
0.000415662
0.000411066
0.000406467
0.000401865
0.000397267
0.000392674
0.000388091
0.000383521
0.000378966
0.000374429
0.000369913
0.000365417
0.000360947
0.000356503
0.00035209
0.000347708
0.00034336
0.000339048
0.000334772
0.000330535
0.000326338
0.000322183
0.000318071
0.000314004
0.000309979
0.000305998
0.000302064
0.000298177
0.000294339
0.000290546
0.000286795
0.00028309
0.000279432
0.000275825
0.000272266
0.000268753
0.000265285
0.000261863
0.000258483
0.000255156
0.000251876
0.000248638
0.000245438
0.000242271
0.000239137
0.000236033
0.000232953
0.000229885
0.000226819
0.000223744
0.000220632
0.000217485
0.000214209
0.00021078
0.000207689
0.000201118
3.3374e-06
1.39528e-05
3.57828e-05
5.82189e-05
7.68759e-05
9.18866e-05
0.000103868
0.000113708
0.000122183
0.000129889
0.000137258
0.000144588
0.00015203
0.000159718
0.000167791
0.000176267
0.000185068
0.000194177
0.00020356
0.000213181
0.000222999
0.000232974
0.000243067
0.000253239
0.000263455
0.000273686
0.0002839
0.000294082
0.00030422
0.000314303
0.00032432
0.000334234
0.000344027
0.000353688
0.000363204
0.000372573
0.000381804
0.000390895
0.000399846
0.000408655
0.000417319
0.000425837
0.000434205
0.000442419
0.000450476
0.000458372
0.000466103
0.000473665
0.000481051
0.000488258
0.000495279
0.000502108
0.00050874
0.000515167
0.000521383
0.000527384
0.000533163
0.000538715
0.000544036
0.000549121
0.000553966
0.000558569
0.000562926
0.000567036
0.000570901
0.000574534
0.000577907
0.000581032
0.000583901
0.00058652
0.000588894
0.000591022
0.000592905
0.000594552
0.000595966
0.000597152
0.000598115
0.000598861
0.000599395
0.00059972
0.000599842
0.000599766
0.000599495
0.000599033
0.00059838
0.000597538
0.000596506
0.000595283
0.000593868
0.000592264
0.000590473
0.000588501
0.000586357
0.000584049
0.000581586
0.000578977
0.000576231
0.000573355
0.000570356
0.000567242
0.000564019
0.000560691
0.000557266
0.000553746
0.000550137
0.000546443
0.000542668
0.000538816
0.000534889
0.000530892
0.000526828
0.000522701
0.000518514
0.000514271
0.000509974
0.000505627
0.000501233
0.000496795
0.000492316
0.000487798
0.000483247
0.000478666
0.000474058
0.000469427
0.000464775
0.000460106
0.000455423
0.000450732
0.000446037
0.00044134
0.000436642
0.000431946
0.000427257
0.000422576
0.000417907
0.000413251
0.000408612
0.000403994
0.000399399
0.000394829
0.000390286
0.000385773
0.000381292
0.000376845
0.000372434
0.000368062
0.000363728
0.000359436
0.000355185
0.000350976
0.000346811
0.000342691
0.000338616
0.000334587
0.000330602
0.000326661
0.000322765
0.000318918
0.000315112
0.000311349
0.000307631
0.000303956
0.000300321
0.000296731
0.000293184
0.000289678
0.000286207
0.000282769
0.000279365
0.000275996
0.000272649
0.000269315
0.000265982
0.000262641
0.000259271
0.000255858
0.000252341
0.000248641
0.000245357
0.000238733
3.65087e-06
1.32732e-05
3.53131e-05
5.95477e-05
8.05197e-05
9.76702e-05
0.000111751
0.000123462
0.000133592
0.000142763
0.000151378
0.000159776
0.000168261
0.000176975
0.000185926
0.000195133
0.000204593
0.000214289
0.00022419
0.000234261
0.000244464
0.000254762
0.000265119
0.000275502
0.000285873
0.00029623
0.000306568
0.00031686
0.00032706
0.000337137
0.000347074
0.000356881
0.000366561
0.000376114
0.000385544
0.000394847
0.000404023
0.000413072
0.000421996
0.000430794
0.000439465
0.000448008
0.000456422
0.000464702
0.000472845
0.000480848
0.000488704
0.000496409
0.000503957
0.00051134
0.000518553
0.000525588
0.000532439
0.000539098
0.000545558
0.000551812
0.000557854
0.000563679
0.00056928
0.000574652
0.000579791
0.000584693
0.000589355
0.000593773
0.000597951
0.000601885
0.000605569
0.000609007
0.000612196
0.000615136
0.000617831
0.000620273
0.000622464
0.000624418
0.000626136
0.000627625
0.000628887
0.000629929
0.000630753
0.000631367
0.000631774
0.000631978
0.000631985
0.000631798
0.00063142
0.000630854
0.000630102
0.000629165
0.000628046
0.000626747
0.00062527
0.000623622
0.000621806
0.000619831
0.000617702
0.000615426
0.000613009
0.000610459
0.000607781
0.000604981
0.000602064
0.000599036
0.0005959
0.000592661
0.000589324
0.000585891
0.000582367
0.000578754
0.000575057
0.000571278
0.00056742
0.000563487
0.000559482
0.000555409
0.000551269
0.000547067
0.000542806
0.000538487
0.000534116
0.000529694
0.000525226
0.000520716
0.000516166
0.000511581
0.000506964
0.000502319
0.000497649
0.000492956
0.000488247
0.000483525
0.000478793
0.000474055
0.000469315
0.000464575
0.00045984
0.000455115
0.000450401
0.0004457
0.000441015
0.000436349
0.000431704
0.000427082
0.000422487
0.000417921
0.000413386
0.000408884
0.000404417
0.000399987
0.000395595
0.000391242
0.000386931
0.000382662
0.000378436
0.000374253
0.000370113
0.000366017
0.000361964
0.000357957
0.000353993
0.000350071
0.000346193
0.000342356
0.000338557
0.000334795
0.000331074
0.00032739
0.00032374
0.000320119
0.000316529
0.000312966
0.000309423
0.000305892
0.000302361
0.000298828
0.000295273
0.000291676
0.000287991
0.000284139
0.000280532
0.000274222
3.90986e-06
1.24927e-05
3.41799e-05
5.9591e-05
8.24861e-05
0.000101624
0.00011765
0.000131182
0.000142899
0.000153394
0.000163249
0.000172821
0.000182281
0.000191767
0.000201364
0.000211112
0.000221019
0.000231073
0.000241251
0.000251523
0.000261858
0.000272221
0.00028259
0.000292957
0.000303326
0.000313637
0.000323837
0.000333904
0.000343834
0.000353636
0.000363321
0.000372886
0.000382333
0.000391666
0.000400887
0.00041
0.000419009
0.000427915
0.000436721
0.000445427
0.000454033
0.000462539
0.000470941
0.000479235
0.000487419
0.000495485
0.000503428
0.000511241
0.000518917
0.000526447
0.000533825
0.00054104
0.000548087
0.000554955
0.000561637
0.000568126
0.000574414
0.000580493
0.000586359
0.000592004
0.000597424
0.000602613
0.000607569
0.000612287
0.000616766
0.000621004
0.000624992
0.00062875
0.00063226
0.00063552
0.000638546
0.000641303
0.000643812
0.000646083
0.000648121
0.000649928
0.000651508
0.000652866
0.000654007
0.000654935
0.000655654
0.00065617
0.000656487
0.000656609
0.000656541
0.000656286
0.000655849
0.000655231
0.000654436
0.000653467
0.000652328
0.000651023
0.000649556
0.000647932
0.000646157
0.000644236
0.000642173
0.000639975
0.000637646
0.000635191
0.000632614
0.000629919
0.000627111
0.000624193
0.000621169
0.000618041
0.000614814
0.000611489
0.00060807
0.00060456
0.000600961
0.000597276
0.000593509
0.000589662
0.000585738
0.00058174
0.000577671
0.000573535
0.000569333
0.000565071
0.000560751
0.000556376
0.000551952
0.00054748
0.000542966
0.000538413
0.000533824
0.000529204
0.000524557
0.000519886
0.000515196
0.000510491
0.000505774
0.000501049
0.00049632
0.000491591
0.000486865
0.000482145
0.000477436
0.000472739
0.000468057
0.000463397
0.000458758
0.000454144
0.000449555
0.000444995
0.000440465
0.000435967
0.000431504
0.000427076
0.000422686
0.000418335
0.000414023
0.000409753
0.000405524
0.000401337
0.000397192
0.000393089
0.00038903
0.000385011
0.000381035
0.0003771
0.000373203
0.000369344
0.000365523
0.000361738
0.00035798
0.000354251
0.00035055
0.00034687
0.000343208
0.000339557
0.000335906
0.000332248
0.000328568
0.000324846
0.000321049
0.000317114
0.000313298
0.000307309
4.1126e-06
1.17061e-05
3.26256e-05
5.86196e-05
8.29765e-05
0.000103897
0.000121635
0.000136795
0.00015001
0.000161957
0.000173031
0.000183567
0.000193813
0.000203931
0.000214019
0.00022413
0.000234287
0.000244491
0.000254727
0.000264967
0.000275213
0.000285467
0.000295736
0.000305935
0.000316005
0.000325934
0.000335712
0.00034536
0.000354893
0.00036431
0.000373618
0.000382823
0.000391933
0.000400955
0.000409896
0.00041876
0.000427553
0.000436279
0.000444939
0.000453533
0.000462061
0.00047052
0.000478906
0.000487213
0.000495435
0.000503566
0.000511596
0.000519518
0.000527323
0.000535
0.000542541
0.000549935
0.000557174
0.000564248
0.000571148
0.000577864
0.00058439
0.000590718
0.000596839
0.000602748
0.000608439
0.000613907
0.000619146
0.000624154
0.000628927
0.000633454
0.000637754
0.000641822
0.000645648
0.000649224
0.000652574
0.000655637
0.000658463
0.000661054
0.000663412
0.000665541
0.000667445
0.000669127
0.000670591
0.000671843
0.000672887
0.000673727
0.000674369
0.000674817
0.000675076
0.00067515
0.000675043
0.00067476
0.000674303
0.000673678
0.000672887
0.000671935
0.000670826
0.000669563
0.000668152
0.000666596
0.000664899
0.000663066
0.000661101
0.000659007
0.000656789
0.000654449
0.000651991
0.000649417
0.000646732