/*--------------------------------*- C++ -*----------------------------------*\
| =========                 |                                                 |
| \\      /  F ield         | OpenFOAM: The Open Source CFD Toolbox           |
|  \\    /   O peration     | Version:  2112                                  |
|   \\  /    A nd           | Website:  www.openfoam.com                      |
|    \\/     M anipulation  |                                                 |
\*---------------------------------------------------------------------------*/
FoamFile
{
    version     2.0;
    format      ascii;
    arch        "LSB;label=32;scalar=64";
    class       volScalarField;
    location    "200";
    object      p;
}
// * * * * * * * * * * * * * * * * * * * * * * * * * * * * * * * * * * * * * //

dimensions      [0 2 -2 0 0 0 0];

internalField   nonuniform List<scalar> 
12225
(
-0.0654027
-0.052741
-0.0303226
-0.0134571
-0.00195897
0.0058144
0.011034
0.0144419
0.0165498
0.0177034
0.0181299
0.0179713
0.0173003
0.016115
0.0143176
0.0116014
0.00724867
-0.000742431
-0.105211
-0.0574463
-0.0333728
-0.01603
-0.00411725
0.00399246
0.00948945
0.0131196
0.0154048
0.0166991
0.0172361
0.0171622
0.0165527
0.0154072
0.0136336
0.0109462
0.00681753
-0.000526266
-0.135042
-0.0651895
-0.0393107
-0.0209131
-0.00825363
0.000445287
0.006433
0.0104626
0.0130718
0.0146279
0.0153747
0.0154668
0.0149864
0.0139423
0.0122657
0.00974606
0.00620802
0.0011965
-0.145472
-0.072597
-0.0457069
-0.0262456
-0.01289
-0.00363944
0.00282289
0.00725496
0.0102035
0.012044
0.0130282
0.0133189
0.0130091
0.0121266
0.0106474
0.00847534
0.00572201
0.00259713
-0.144172
-0.0782211
-0.0509412
-0.0308487
-0.0170423
-0.00740291
-0.000587106
0.00416206
0.00739153
0.00947867
0.0106797
0.0111652
0.0110414
0.0103623
0.00915659
0.00743733
0.00546624
0.00357866
-0.136363
-0.0816085
-0.0546719
-0.0345168
-0.02053
-0.0106626
-0.00361036
0.00137088
0.00481997
0.00711132
0.00850308
0.00917309
0.00924194
0.00879073
0.00789464
0.0066444
0.00535302
0.00427998
-0.12444
-0.0824684
-0.0568478
-0.0372193
-0.0233382
-0.0134044
-0.00622497
-0.00108881
0.00252489
0.00498257
0.00654169
0.00738594
0.00764918
0.00743603
0.00685522
0.00604171
0.00530419
0.00477693
-0.110017
-0.0806887
-0.0574227
-0.0388816
-0.0254171
-0.0155961
-0.0084048
-0.00319296
0.000530052
0.00311642
0.00481932
0.00582557
0.00627912
0.00630174
0.00602193
0.00559239
0.00528714
0.00511654
-0.094337
-0.0764195
-0.0563859
-0.0394299
-0.0267058
-0.0171952
-0.0101181
-0.0049156
-0.0011417
0.00153364
0.00335443
0.00450675
0.00514
0.00538558
0.00537941
0.00527345
0.00529345
0.0053484
-0.0782506
-0.070032
-0.0537947
-0.0388309
-0.0271594
-0.0181671
-0.0113386
-0.00623556
-0.00247245
0.000249625
0.00215946
0.00343763
0.00423362
0.00468091
0.00491299
0.00506977
0.00532725
0.00551984
-0.0622441
-0.0620241
-0.0498172
-0.0371248
-0.0267742
-0.0185007
-0.0120549
-0.0071429
-0.00345384
-0.000728932
0.00123892
0.00261923
0.00355593
0.00417795
0.00460948
0.00497277
0.00540082
0.00567078
-0.0478637
-0.053655
-0.0451492
-0.0346643
-0.0257015
-0.0182453
-0.0122626
-0.00760454
-0.00403902
-0.00135105
0.000640915
0.00209121
0.00313378
0.00388859
0.00446765
0.0049758
0.00551725
0.00581897
-0.0345852
-0.0445391
-0.0397509
-0.0314697
-0.0239724
-0.0174633
-0.0120458
-0.00771392
-0.00432508
-0.00171336
0.000272705
0.00176765
0.00289152
0.00375168
0.00444598
0.00506244
0.00566809
0.00601531
-0.0206334
-0.0337296
-0.0329524
-0.0271258
-0.0213106
-0.015983
-0.0113106
-0.00742657
-0.00429692
-0.00181684
0.000126748
0.00164195
0.00282847
0.00377657
0.00456706
0.00526947
0.00591774
0.00631643
-0.00643853
-0.0217601
-0.024877
-0.021653
-0.0176466
-0.0136786
-0.00992278
-0.00661435
-0.003835
-0.00155196
0.000302464
0.00180253
0.0030222
0.00403025
0.00488894
0.00564923
0.00632351
0.00676815
0.00713302
-0.00959204
-0.0160804
-0.0153931
-0.0131612
-0.0105898
-0.00784361
-0.00520088
-0.00284466
-0.000817526
0.000899195
0.00234325
0.00355902
0.00459226
0.00548569
0.00627411
0.00695915
0.00744545
0.0186223
0.00120404
-0.00778614
-0.00923527
-0.00850106
-0.00713405
-0.0053119
-0.00330523
-0.00136583
0.000396818
0.0019578
0.00332233
0.00450832
0.00554011
0.0064438
0.00724134
0.00793482
0.00847767
0.0253554
0.00805675
-0.00216228
-0.0048541
-0.00496927
-0.00428826
-0.00302472
-0.00141671
0.000259103
0.00185219
0.00330947
0.00461635
0.00577422
0.00679353
0.00768947
0.00847683
0.00916494
0.00974967
0.0227785
0.00653709
-0.00303149
-0.00522584
-0.00484676
-0.00374616
-0.00215296
-0.000277319
0.00162007
0.00339479
0.00499979
0.00642653
0.0076814
0.00877863
0.0097366
0.0105745
0.0113195
0.0120167
0.0127069
-0.00349491
-0.0111064
-0.0111755
-0.00916742
-0.00676392
-0.00412512
-0.00145661
0.00102884
0.00324232
0.00517634
0.00684795
0.00828348
0.00951092
0.0105591
0.011454
0.0122325
0.0129571
-0.00439154
-0.0184035
-0.0221026
-0.018834
-0.0143833
-0.0100936
-0.00603195
-0.00234692
0.000851492
0.00356778
0.00585495
0.00777294
0.00937737
0.01072
0.0118446
0.0127897
0.0135999
0.0143585
-0.0259392
-0.0355611
-0.0336972
-0.0263935
-0.0191507
-0.0128231
-0.00733861
-0.00270823
0.00111302
0.0042394
0.00679291
0.00887869
0.0105843
0.0119824
0.0131316
0.0140791
0.014874
0.0156005
-0.0502763
-0.0525605
-0.0437922
-0.0322761
-0.0223219
-0.0141698
-0.00752675
-0.0021856
0.00207133
0.00546087
0.00816549
0.0103294
0.0120665
0.0134657
0.0145972
0.0155146
0.0162694
0.0169442
-0.0760847
-0.0671504
-0.0508338
-0.0355596
-0.0233778
-0.0138754
-0.00646957
-0.000709446
0.00377037
0.00726451
0.0100005
0.012151
0.0138476
0.0151912
0.0162585
0.0171088
0.0177918
0.0183866
-0.101668
-0.0772061
-0.0539592
-0.0359705
-0.0222964
-0.0120146
-0.0042483
0.00165558
0.0061618
0.00961553
0.0122737
0.0143268
0.0159175
0.017153
0.0181143
0.018863
0.0194471
0.019939
-0.124588
-0.0811879
-0.0530534
-0.0336898
-0.0193165
-0.00878742
-0.00100697
0.00480537
0.00916826
0.0124549
0.0149386
0.0168194
0.0182448
0.0193247
0.0201415
0.020757
0.0212174
0.0215858
-0.140432
-0.0786884
-0.0484234
-0.0289709
-0.0146591
-0.00434082
0.00315907
0.00866891
0.0127311
0.0157309
0.0179474
0.0195832
0.0207855
0.0216634
0.022298
0.02275
0.0230627
0.0232887
-0.139773
-0.0705129
-0.0407904
-0.022161
-0.00858564
0.00111718
0.00806073
0.013062
0.0166696
0.0192673
0.0211298
0.0224541
0.0233826
0.0240197
0.024442
0.024707
0.0248552
0.0249304
-0.11021
-0.0595851
-0.0326629
-0.015057
-0.00252389
0.00636981
0.0126289
0.0170394
0.0201458
0.0223195
0.023822
0.0248394
0.0255053
0.0259165
0.0261439
0.0262403
0.0262429
0.0261931
-0.0632846
-0.0524468
-0.0282634
-0.0111174
0.000802076
0.00921097
0.0150604
0.0191217
0.0219367
0.0238675
0.0251665
0.0260126
0.0265335
0.0268213
0.0269431
0.0269489
0.0268739
0.0267599
-0.00374715
-0.00373297
-0.00376845
-0.00386033
-0.00398793
-0.00413697
-0.00430071
-0.00447587
-0.00466059
-0.00485505
-0.00506078
-0.00527997
-0.00551443
-0.00576578
-0.00603505
-0.0063229
-0.00662909
-0.00695297
-0.00729293
-0.00764726
-0.00801316
-0.00838747
-0.00876548
-0.00914221
-0.00951083
-0.00986437
-0.010194
-0.0104912
-0.0107455
-0.0109474
-0.0110857
-0.0111508
-0.0111319
-0.0110202
-0.0108062
-0.0104831
-0.0100434
-0.00948284
-0.0087961
-0.00798033
-0.00703157
-0.00594962
-0.00473567
-0.00339641
-0.00193753
-0.000361889
0.00133713
0.00316405
0.00511467
0.00717793
0.00934577
0.0116092
0.013961
0.0163924
0.0188957
0.0214623
0.0240838
0.0267514
0.0294569
0.0321913
0.0349463
0.0377134
0.0404843
0.0432511
0.046006
0.0487416
0.0514507
0.0541266
0.0567626
0.059353
0.0618921
0.0643753
0.0667977
0.0691557
0.0714452
0.0736637
0.0758081
0.0778766
0.0798672
0.0817792
0.0836113
0.0853636
0.0870357
0.0886287
0.0901428
0.0915794
0.0929392
0.0942245
0.0954358
0.0965717
0.0976326
0.0986204
0.0995376
0.100387
0.101172
0.101894
0.102557
0.103163
0.103715
0.104215
0.104666
0.10507
0.10543
0.105747
0.106024
0.106264
0.106467
0.106638
0.106776
0.106885
0.106966
0.107021
0.107052
0.107059
0.107046
0.107013
0.106961
0.106893
0.106809
0.10671
0.106597
0.106473
0.106336
0.106189
0.106033
0.105867
0.105694
0.105513
0.105326
0.105132
0.104933
0.104729
0.104521
0.104309
0.104094
0.103875
0.103654
0.103431
0.103206
0.102978
0.102748
0.102517
0.102284
0.102051
0.101816
0.101581
0.101345
0.101109
0.100872
0.100636
0.100398
0.100161
0.0999236
0.0996861
0.0994486
0.0992113
0.098974
0.0987369
0.0985
0.0982636
0.0980278
0.0977928
0.0975588
0.0973262
0.0970956
0.0968676
0.096643
0.0964229
0.0962089
0.0960029
0.0958075
0.0956263
0.0954642
0.0953277
0.0952265
0.0951723
0.0951905
0.0952862
0.0956025
0.0958299
-0.0036077
-0.00362018
-0.00366693
-0.00374923
-0.00385546
-0.00397296
-0.00409549
-0.00422369
-0.00436097
-0.00451064
-0.00467478
-0.00485581
-0.00505646
-0.00527913
-0.00552516
-0.00579562
-0.00609065
-0.00641053
-0.00675444
-0.00712109
-0.00750724
-0.0079092
-0.00832142
-0.00873801
-0.00915097
-0.00955224
-0.00993174
-0.0102797
-0.0105844
-0.0108356
-0.0110215
-0.0111321
-0.0111567
-0.0110867
-0.0109129
-0.0106288
-0.0102276
-0.00970505
-0.00905662
-0.00828026
-0.00737326
-0.00633531
-0.00516528
-0.00386372
-0.00242991
-0.000866476
0.000820082
0.00261999
0.00452909
0.00654377
0.00865952
0.0108697
0.0131679
0.0155462
0.0179975
0.0205132
0.0230858
0.0257066
0.0283674
0.0310598
0.0337755
0.0365061
0.0392437
0.0419803
0.0447084
0.0474208
0.0501103
0.0527701
0.0553935
0.0579748
0.0605084
0.0629895
0.0654132
0.0677757
0.070073
0.0723023
0.0744604
0.0765454
0.0785552
0.0804887
0.0823448
0.0841231
0.0858234
0.0874464
0.0889929
0.0904637
0.0918573
0.0931715
0.0944065
0.0955662
0.0966532
0.0976689
0.0986154
0.0994951
0.10031
0.101064
0.101758
0.102395
0.102978
0.103508
0.103989
0.104422
0.10481
0.105156
0.10546
0.105726
0.105956
0.106151
0.106314
0.106446
0.106549
0.106626
0.106677
0.106705
0.106711
0.106696
0.106662
0.10661
0.106542
0.106458
0.10636
0.106249
0.106126
0.105991
0.105846
0.105692
0.105529
0.105358
0.10518
0.104995
0.104805
0.104609
0.104408
0.104203
0.103995
0.103782
0.103567
0.103349
0.103128
0.102905
0.10268
0.102453
0.102224
0.101994
0.101763
0.101532
0.101299
0.101066
0.100832
0.100598
0.100363
0.100128
0.0998923
0.0996568
0.0994211
0.0991854
0.0989497
0.0987141
0.0984787
0.0982436
0.098009
0.0977751
0.0975422
0.0973106
0.097081
0.0968539
0.0966302
0.096411
0.0961978
0.0959926
0.0957981
0.0956177
0.0954562
0.0953203
0.0952194
0.0951648
0.0951811
0.0952689
0.0955713
0.095719
-0.00320495
-0.00326996
-0.00338151
-0.00350979
-0.00362778
-0.00372558
-0.00380944
-0.00389025
-0.00397764
-0.0040794
-0.00420195
-0.00435105
-0.00453116
-0.00474577
-0.004997
-0.00528627
-0.00561362
-0.00597813
-0.00637673
-0.0068051
-0.00725707
-0.00772598
-0.00820354
-0.00868129
-0.00914939
-0.00959839
-0.0100177
-0.0103975
-0.010727
-0.0109969
-0.011197
-0.011319
-0.0113538
-0.0112943
-0.011133
-0.0108643
-0.0104823
-0.00998332
-0.00936329
-0.00862036
-0.00775258
-0.00675984
-0.0056413
-0.00439689
-0.00302596
-0.00153066
8.50706e-05
0.00181513
0.00365465
0.0055988
0.00764279
0.00978068
0.0120064
0.014313
0.0166933
0.0191399
0.0216452
0.0242011
0.0267997
0.0294329
0.0320926
0.0347708
0.0374595
0.0401511
0.0428381
0.0455134
0.04817
0.0508011
0.0534003
0.0559616
0.0584795
0.0609489
0.0633652
0.0657241
0.0680217
0.070255
0.0724208
0.0745168
0.0765409
0.0784918
0.0803679
0.0821688
0.0838939
0.0855436
0.0871182
0.0886182
0.090044
0.0913959
0.0926748
0.0938827
0.0950205
0.0960888
0.0970887
0.0980221
0.0988909
0.0996972
0.100443
0.101132
0.101765
0.102344
0.102873
0.103353
0.103786
0.104176
0.104523
0.104831
0.1051
0.105334
0.105534
0.105703
0.105841
0.105951
0.106035
0.106094
0.106129
0.106143
0.106136
0.106111
0.106067
0.106008
0.105933
0.105843
0.105741
0.105626
0.1055
0.105364
0.105218
0.105064
0.104901
0.104732
0.104555
0.104373
0.104185
0.103992
0.103794
0.103593
0.103387
0.103179
0.102967
0.102752
0.102535
0.102316
0.102095
0.101872
0.101648
0.101422
0.101195
0.100968
0.100739
0.100509
0.100279
0.100049
0.0998174
0.0995857
0.0993537
0.0991215
0.098889
0.0986564
0.0984239
0.0981915
0.0979595
0.097728
0.0974975
0.0972681
0.0970405
0.0968154
0.0965935
0.0963759
0.0961643
0.0959604
0.095767
0.0955874
0.0954264
0.0952899
0.095187
0.0951277
0.0951342
0.0951984
0.0954495
0.0954859
-0.00258341
-0.00271709
-0.00292859
-0.00314175
-0.00331045
-0.00343422
-0.00352999
-0.00361538
-0.00370499
-0.00381064
-0.00394159
-0.00410536
-0.00430741
-0.00455164
-0.00483985
-0.00517232
-0.00554728
-0.00596157
-0.00640998
-0.00688652
-0.00738362
-0.00789353
-0.00840724
-0.00891596
-0.00940994
-0.00988006
-0.0103164
-0.0107099
-0.011051
-0.0113311
-0.0115411
-0.0116735
-0.0117202
-0.0116746
-0.0115299
-0.0112808
-0.0109219
-0.0104492
-0.00985887
-0.00914858
-0.00831608
-0.00736079
-0.00628194
-0.00508004
-0.0037556
-0.00231089
-0.000748818
0.000926258
0.00271033
0.00459872
0.00658674
0.00866881
0.0108391
0.0130912
0.0154182
0.0178131
0.0202684
0.0227765
0.0253296
0.0279199
0.0305394
0.0331805
0.0358351
0.0384958
0.0411551
0.0438059
0.0464412
0.0490543
0.0516387
0.0541887
0.0566987
0.0591635
0.0615783
0.0639388
0.066241
0.0684816
0.0706574
0.072766
0.074805
0.0767728
0.0786681
0.0804901
0.0822384
0.0839127
0.0855127
0.0870382
0.0884896
0.0898674
0.0911734
0.0924096
0.0935774
0.0946775
0.0957109
0.096679
0.0975835
0.0984262
0.0992092
0.0999345
0.100604
0.101221
0.101786
0.102302
0.102772
0.103197
0.103579
0.103921
0.104224
0.104491
0.104723
0.104923
0.105092
0.105233
0.105345
0.105432
0.105495
0.105536
0.105555
0.105554
0.105535
0.105499
0.105446
0.105379
0.105297
0.105203
0.105096
0.104978
0.104851
0.104713
0.104567
0.104414
0.104252
0.104084
0.10391
0.10373
0.103545
0.103356
0.103162
0.102964
0.102763
0.102558
0.102351
0.102141
0.101928
0.101713
0.101497
0.101279
0.101059
0.100838
0.100615
0.100392
0.100167
0.099942
0.0997159
0.0994891
0.0992617
0.0990337
0.0988054
0.0985767
0.0983478
0.0981189
0.0978901
0.0976617
0.097434
0.0972074
0.0969822
0.0967593
0.0965394
0.0963237
0.0961135
0.0959106
0.0957176
0.0955377
0.0953753
0.0952355
0.0951266
0.0950558
0.0950425
0.0950696
0.0952416
0.0951733
-0.00189535
-0.00210019
-0.00243467
-0.00276141
-0.00301339
-0.00320073
-0.00334949
-0.00348226
-0.00361723
-0.00376906
-0.00394868
-0.0041641
-0.00442043
-0.00472067
-0.00506542
-0.00545369
-0.00588235
-0.00634704
-0.0068416
-0.00735923
-0.0078919
-0.00843162
-0.00896943
-0.00949682
-0.0100045
-0.0104838
-0.0109255
-0.0113214
-0.0116625
-0.0119412
-0.0121491
-0.0122793
-0.0123245
-0.0122786
-0.0121354
-0.0118899
-0.011537
-0.0110732
-0.0104945
-0.00979877
-0.00898353
-0.00804796
-0.00699116
-0.00581373
-0.00451627
-0.00310087
-0.00156982
7.33234e-05
0.00182499
0.00368072
0.00563591
0.00768514
0.00982279
0.0120425
0.0143378
0.0167017
0.019127
0.0216062
0.0241317
0.0266959
0.0292909
0.0319091
0.0345427
0.0371844
0.0398267
0.0424625
0.0450848
0.0476868
0.0502624
0.0528057
0.0553112
0.0577738
0.0601885
0.0625509
0.064857
0.0671034
0.0692869
0.0714049
0.073455
0.0754357
0.0773457
0.0791839
0.0809495
0.0826419
0.0842604
0.0858045
0.0872742
0.0886701
0.0899939
0.0912478
0.0924336
0.0935526
0.0946059
0.0955952
0.0965218
0.0973875
0.0981941
0.0989437
0.0996381
0.10028
0.10087
0.101412
0.101906
0.102356
0.102764
0.10313
0.103459
0.10375
0.104007
0.104231
0.104423
0.104587
0.104722
0.104831
0.104916
0.104978
0.105018
0.105037
0.105038
0.105021
0.104987
0.104938
0.104874
0.104796
0.104706
0.104605
0.104492
0.10437
0.104239
0.104099
0.103951
0.103796
0.103634
0.103467
0.103293
0.103115
0.102931
0.102744
0.102552
0.102357
0.102158
0.101956
0.101752
0.101545
0.101336
0.101125
0.100912
0.100698
0.100482
0.100264
0.100045
0.0998252
0.0996042
0.0993822
0.0991594
0.0989359
0.0987116
0.0984869
0.0982617
0.0980363
0.0978109
0.0975856
0.0973607
0.0971366
0.0969139
0.096693
0.0964748
0.0962604
0.096051
0.0958483
0.0956546
0.0954728
0.0953066
0.0951606
0.0950413
0.0949534
0.0949122
0.0948941
0.0949804
0.0948137
-0.00134337
-0.00160161
-0.00205073
-0.00250305
-0.00285671
-0.00312552
-0.00334502
-0.00354357
-0.00374235
-0.00395776
-0.00420146
-0.00448135
-0.00480177
-0.0051646
-0.00556914
-0.00601316
-0.00649255
-0.00700229
-0.00753568
-0.00808574
-0.00864454
-0.00920435
-0.00975658
-0.0102932
-0.0108054
-0.0112853
-0.0117243
-0.0121149
-0.0124487
-0.0127189
-0.0129176
-0.0130387
-0.0130751
-0.0130213
-0.0128713
-0.0126205
-0.012264
-0.0117984
-0.0112199
-0.0105263
-0.00971531
-0.00878589
-0.00773707
-0.00656927
-0.00528295
-0.00387999
-0.00236243
-0.000733553
0.0010033
0.00284377
0.00478336
0.00681672
0.00893831
0.0111419
0.0134211
0.0157689
0.0181784
0.0206421
0.0231525
0.0257021
0.0282831
0.030888
0.0335092
0.0361392
0.0387709
0.0413971
0.0440107
0.0466052
0.0491743
0.0517125
0.0542141
0.0566741
0.0590874
0.0614496
0.0637569
0.0660056
0.0681928
0.0703158
0.0723725
0.074361
0.0762798
0.0781276
0.0799035
0.0816068
0.0832369
0.0847933
0.0862758
0.087685
0.0890223
0.0902896
0.091489
0.0926219
0.0936897
0.094694
0.0956364
0.0965186
0.0973424
0.0981096
0.0988222
0.0994821
0.100091
0.100652
0.101166
0.101635
0.102062
0.102448
0.102795
0.103106
0.103381
0.103624
0.103835
0.104017
0.104171
0.104298
0.1044
0.104479
0.104536
0.104573
0.10459
0.104588
0.10457
0.104536
0.104487
0.104424
0.104348
0.10426
0.104161
0.104051
0.103932
0.103804
0.103668
0.103524
0.103374
0.103216
0.103053
0.102884
0.10271
0.102532
0.102349
0.102162
0.101971
0.101778
0.101581
0.101381
0.101179
0.100974
0.100768
0.100559
0.100349
0.100137
0.0999231
0.0997081
0.0994919
0.0992745
0.099056
0.0988365
0.0986162
0.0983952
0.0981735
0.0979514
0.097729
0.0975065
0.0972843
0.0970625
0.0968417
0.0966225
0.0964056
0.0961919
0.0959825
0.095779
0.0955834
0.095398
0.095226
0.095071
0.0949378
0.0948287
0.0947545
0.0946878
0.0946917
0.0944362
-0.00108409
-0.00137077
-0.00189574
-0.00245478
-0.00290851
-0.00326287
-0.0035588
-0.00382849
-0.00409539
-0.00437692
-0.00468492
-0.00502704
-0.00540692
-0.00582554
-0.00628129
-0.00677138
-0.00729109
-0.0078349
-0.0083961
-0.00896803
-0.00954304
-0.0101138
-0.0106722
-0.0112108
-0.0117213
-0.0121964
-0.0126281
-0.0130094
-0.0133324
-0.0135907
-0.013777
-0.0138852
-0.0139089
-0.0138427
-0.0136809
-0.0134192
-0.0130527
-0.0125782
-0.011992
-0.0112917
-0.0104752
-0.00954129
-0.00848907
-0.00731888
-0.00603114
-0.00462766
-0.00311037
-0.00148242
0.000252914
0.00209132
0.00402832
0.00605856
0.00817653
0.010376
0.0126506
0.0149935
0.0173976
0.0198555
0.0223599
0.0249033
0.0274779
0.0300763
0.032691
0.0353146
0.03794
0.0405601
0.0431678
0.0457568
0.0483209
0.0508545
0.0533521
0.0558085
0.0582189
0.060579
0.0628849
0.0651333
0.0673212
0.0694457
0.0715047
0.0734962
0.0754186
0.0772707
0.0790514
0.0807601
0.0823961
0.0839592
0.0854494
0.086867
0.0882133
0.0894901
0.0906991
0.0918419
0.0929199
0.0939349
0.0948885
0.0957825
0.0966186
0.0973987
0.0981246
0.0987982
0.0994216
0.0999965
0.100525
0.101009
0.101451
0.101852
0.102214
0.10254
0.102831
0.103089
0.103315
0.103512
0.103681
0.103823
0.10394
0.104033
0.104104
0.104154
0.104185
0.104197
0.104192
0.104171
0.104134
0.104083
0.10402
0.103943
0.103856
0.103757
0.103649
0.103532
0.103406
0.103272
0.103131
0.102983
0.102829
0.102669
0.102503
0.102333
0.102157
0.101978
0.101795
0.101608
0.101418
0.101225
0.101029
0.10083
0.100629
0.100426
0.100221
0.100014
0.0998052
0.0995949
0.0993831
0.0991698
0.0989553
0.0987397
0.098523
0.0983054
0.0980869
0.0978678
0.0976482
0.0974282
0.0972082
0.0969884
0.0967693
0.0965513
0.0963351
0.0961215
0.0959114
0.0957062
0.0955075
0.0953172
0.0951378
0.0949716
0.0948221
0.0946892
0.0945793
0.0944639
0.0943925
0.09406
-0.00118267
-0.00147118
-0.00202506
-0.00265246
-0.00318689
-0.00361706
-0.00398341
-0.00431922
-0.0046485
-0.00498906
-0.00535281
-0.00574697
-0.00617463
-0.00663656
-0.00713088
-0.00765424
-0.00820169
-0.00876793
-0.00934647
-0.0099309
-0.0105139
-0.0110886
-0.0116473
-0.012183
-0.0126879
-0.0131551
-0.0135768
-0.0139465
-0.0142566
-0.014501
-0.0146728
-0.0147662
-0.0147748
-0.0146936
-0.014517
-0.0142406
-0.0138597
-0.0133711
-0.0127711
-0.0120575
-0.0112278
-0.0102813
-0.00921688
-0.00803503
-0.0067362
-0.00532223
-0.00379506
-0.00215785
-0.000413899
0.00143243
0.0033766
0.00541325
0.00753678
0.00974095
0.0120194
0.0143651
0.0167712
0.0192303
0.021735
0.0242778
0.0268512
0.0294476
0.0320597
0.0346802
0.0373019
0.0399179
0.0425213
0.0451057
0.0476651
0.0501939
0.0526869
0.0551389
0.0575452
0.0599016
0.0622043
0.06445
0.0666354
0.0687582
0.0708158
0.0728065
0.0747286
0.0765809
0.0783624
0.0800723
0.0817101
0.0832758
0.0847693
0.0861912
0.0875424
0.0888247
0.0900396
0.0911887
0.0922733
0.0932953
0.0942564
0.0951584
0.096003
0.096792
0.0975273
0.0982108
0.0988443
0.0994299
0.0999693
0.100465
0.100918
0.10133
0.101705
0.102043
0.102346
0.102616
0.102854
0.103063
0.103244
0.103398
0.103527
0.103632
0.103715
0.103777
0.103819
0.103843
0.103849
0.103839
0.103813
0.103773
0.10372
0.103654
0.103576
0.103487
0.103389
0.10328
0.103164
0.103038
0.102906
0.102766
0.10262
0.102467
0.10231
0.102146
0.101978
0.101806
0.101629
0.101449
0.101265
0.101078
0.100887
0.100694
0.100498
0.1003
0.1001
0.0998977
0.0996934
0.0994872
0.0992795
0.0990701
0.0988592
0.0986471
0.0984337
0.0982191
0.0980036
0.0977872
0.09757
0.0973522
0.0971342
0.0969161
0.0966982
0.096481
0.0962651
0.096051
0.0958396
0.0956319
0.0954292
0.0952329
0.0950447
0.094866
0.0946985
0.0945405
0.0943944
0.094232
0.0940927
0.0936951
-0.00162993
-0.00190004
-0.00244206
-0.00309362
-0.00367763
-0.00416285
-0.00458372
-0.00497244
-0.00535172
-0.00573872
-0.00614481
-0.00657715
-0.00703885
-0.0075303
-0.00804943
-0.00859316
-0.00915675
-0.00973509
-0.0103219
-0.010911
-0.0114956
-0.0120689
-0.0126237
-0.0131532
-0.0136499
-0.014107
-0.0145172
-0.014874
-0.0151704
-0.0154003
-0.015557
-0.0156347
-0.0156272
-0.0155294
-0.0153357
-0.0150418
-0.0146429
-0.0141359
-0.0135172
-0.0127846
-0.011936
-0.0109705
-0.00988718
-0.00868668
-0.00736956
-0.00593774
-0.00439329
-0.00273946
-0.000979679
0.000881609
0.00283976
0.00488929
0.00702454
0.00923921
0.0115268
0.0138805
0.0162932
0.0187576
0.0212663
0.0238118
0.0263866
0.0289833
0.0315947
0.0342134
0.0368323
0.0394445
0.0420434
0.0446229
0.0471772
0.0497007
0.052188
0.0546343
0.0570347
0.0593853
0.0616823
0.0639225
0.0661029
0.0682207
0.0702739
0.0722606
0.0741791
0.0760282
0.077807
0.0795148
0.0811512
0.082716
0.0842095
0.0856323
0.0869851
0.0882696
0.0894873
0.0906396
0.0917278
0.0927539
0.0937195
0.0946264
0.0954764
0.0962714
0.0970131
0.0977035
0.0983442
0.0989374
0.0994848
0.0999885
0.10045
0.100872
0.101255
0.101603
0.101915
0.102195
0.102443
0.102662
0.102853
0.103017
0.103156
0.103271
0.103364
0.103436
0.103488
0.103521
0.103537
0.103536
0.10352
0.103489
0.103444
0.103387
0.103319
0.103239
0.103148
0.103048
0.102939
0.102822
0.102697
0.102565
0.102426
0.10228
0.102129
0.101973
0.101811
0.101645
0.101474
0.1013
0.101121
0.100939
0.100754
0.100566
0.100375
0.100182
0.0999862
0.099788
0.0995878
0.0993856
0.0991816
0.0989758
0.0987684
0.0985594
0.098349
0.0981373
0.0979244
0.0977104
0.0974954
0.0972796
0.0970632
0.0968464
0.0966294
0.0964127
0.0961965
0.0959815
0.0957682
0.0955574
0.09535
0.0951468
0.0949488
0.0947565
0.0945703
0.0943867
0.0942054
0.0939986
0.0937987
0.0933468
-0.00237007
-0.00260878
-0.00310843
-0.00374276
-0.00434087
-0.00485487
-0.00530908
-0.00573256
-0.00614552
-0.00656353
-0.00699742
-0.00745383
-0.00793553
-0.00844323
-0.00897513
-0.00952833
-0.0100982
-0.01068
-0.0112677
-0.0118555
-0.0124365
-0.0130045
-0.0135521
-0.0140728
-0.0145594
-0.0150052
-0.0154032
-0.0157472
-0.0160299
-0.0162454
-0.0163866
-0.0164478
-0.0164228
-0.0163064
-0.0160931
-0.0157787
-0.0153585
-0.0148295
-0.014188
-0.0134322
-0.0125599
-0.0115705
-0.0104633
-0.00923899
-0.00789837
-0.00644353
-0.00487671
-0.00320134
-0.00142102
0.00045967
0.00243592
0.00450217
0.00665261
0.00888089
0.0111805
0.0135445
0.0159658
0.018437
0.0209509
0.0234998
0.0260764
0.0286734
0.0312835
0.0338998
0.0365151
0.0391226
0.0417161
0.0442895
0.0468369
0.0493531
0.0518327
0.0542708
0.0566629
0.0590051
0.0612938
0.0635257
0.065698
0.0678081
0.0698538
0.0718333
0.0737452
0.0755881
0.0773613
0.079064
0.080696
0.0822572
0.0837479
0.0851686
0.0865202
0.0878041
0.0890219
0.0901747
0.0912641
0.0922917
0.0932594
0.0941689
0.095022
0.0958205
0.0965663
0.0972611
0.0979068
0.0985053
0.0990585
0.0995683
0.100037
0.100465
0.100856
0.10121
0.10153
0.101818
0.102074
0.102301
0.1025
0.102672
0.10282
0.102943
0.103045
0.103125
0.103185
0.103227
0.103251
0.103258
0.10325
0.103228
0.103191
0.103142
0.103081
0.103009
0.102926
0.102833
0.102732
0.102621
0.102503
0.102378
0.102245
0.102106
0.101961
0.101811
0.101655
0.101494
0.101329
0.10116
0.100987
0.10081
0.10063
0.100446
0.10026
0.100071
0.0998791
0.099685
0.0994886
0.09929
0.0990895
0.098887
0.0986827
0.0984768
0.0982692
0.0980601
0.0978497
0.0976379
0.0974248
0.0972107
0.0969957
0.0967799
0.0965636
0.0963469
0.0961302
0.0959138
0.0956982
0.0954838
0.095271
0.0950603
0.0948519
0.0946455
0.0944402
0.0942313
0.0940163
0.0937682
0.0935147
0.093018
-0.00332115
-0.00352185
-0.00395954
-0.00454355
-0.00512185
-0.00563679
-0.00610123
-0.00653911
-0.00696804
-0.00740133
-0.00784831
-0.00831526
-0.00880493
-0.009318
-0.00985276
-0.0104065
-0.010975
-0.0115536
-0.0121365
-0.0127181
-0.0132916
-0.0138508
-0.0143886
-0.0148988
-0.0153742
-0.0158085
-0.0161943
-0.0165251
-0.0167936
-0.0169934
-0.0171177
-0.0171608
-0.0171163
-0.0169791
-0.0167438
-0.016406
-0.0159615
-0.0154069
-0.0147391
-0.0139563
-0.0130566
-0.0120396
-0.0109048
-0.00965305
-0.00828547
-0.00680436
-0.00521218
-0.00351257
-0.00170934
0.000192747
0.00218873
0.00427289
0.00643932
0.00868155
0.010993
0.0133667
0.0157956
0.0182725
0.0207901
0.023341
0.0259177
0.0285131
0.0311201
0.0337316
0.0363409
0.0389413
0.0415268
0.0440913
0.0466292
0.0491352
0.0516041
0.0540309
0.0564115
0.0587422
0.0610195
0.0632401
0.0654013
0.0675006
0.0695358
0.0715053
0.0734076
0.0752415
0.0770062
0.0787012
0.0803262
0.0818811
0.0833664
0.0847825
0.0861304
0.0874113
0.0886268
0.0897779
0.0908662
0.0918934
0.0928611
0.0937712
0.0946254
0.0954256
0.0961735
0.0968709
0.0975198
0.0981218
0.0986791
0.0991933
0.0996665
0.1001
0.100496
0.100857
0.101183
0.101477
0.101739
0.101973
0.102179
0.102358
0.102512
0.102643
0.102752
0.102839
0.102907
0.102956
0.102987
0.103002
0.103001
0.102986
0.102956
0.102914
0.10286
0.102795
0.102719
0.102633
0.102538
0.102434
0.102322
0.102202
0.102076
0.101943
0.101804
0.101659
0.101508
0.101353
0.101193
0.101029
0.100861
0.100688
0.100513
0.100334
0.100151
0.0999662
0.0997784
0.099588
0.0993952
0.0992001
0.0990028
0.0988035
0.0986022
0.098399
0.098194
0.0979874
0.0977792
0.0975694
0.0973582
0.0971456
0.0969318
0.0967168
0.0965009
0.096284
0.0960665
0.0958484
0.0956301
0.0954116
0.0951931
0.0949745
0.0947554
0.0945347
0.0943103
0.094077
0.0938302
0.0935442
0.0932435
0.09271
-0.00439431
-0.00455429
-0.00491815
-0.00542722
-0.00595651
-0.00644628
-0.00689889
-0.00733199
-0.00775976
-0.00819315
-0.00864017
-0.00910628
-0.00959378
-0.0101032
-0.010633
-0.0111805
-0.0117416
-0.0123117
-0.0128852
-0.0134565
-0.0140192
-0.0145672
-0.0150938
-0.0155927
-0.0160564
-0.0164781
-0.0168502
-0.017166
-0.0174181
-0.0176003
-0.0177054
-0.0177278
-0.017661
-0.0175
-0.0172393
-0.016875
-0.0164025
-0.015819
-0.0151216
-0.0143087
-0.0133787
-0.0123314
-0.0111665
-0.00988547
-0.00848946
-0.00698115
-0.00536326
-0.00363959
-0.0018141
0.000108286
0.0021225
0.00422271
0.00640295
0.00865671
0.0109774
0.013358
0.0157916
0.0182709
0.0207888
0.0233379
0.0259111
0.0285012
0.0311012
0.0337041
0.0363035
0.0388931
0.0414668
0.0440185
0.046543
0.049035
0.0514892
0.053901
0.0562666
0.0585823
0.0608446
0.0630505
0.0651973
0.0672825
0.0693042
0.0712607
0.0731505
0.0749726
0.0767262
0.0784108
0.0800263
0.0815726
0.0830502
0.0844595
0.0858013
0.0870771
0.0882882
0.0894358
0.0905211
0.091546
0.0925121
0.0934211
0.0942749
0.0950752
0.0958237
0.0965223
0.0971729
0.0977772
0.0983371
0.0988544
0.099331
0.0997687
0.100169
0.100534
0.100865
0.101164
0.101432
0.101671
0.101883
0.102068
0.102229
0.102366
0.102481
0.102575
0.102649
0.102704
0.102742
0.102763
0.102769
0.10276
0.102737
0.102701
0.102653
0.102594
0.102525
0.102445
0.102356
0.102258
0.102152
0.102038
0.101917
0.101789
0.101655
0.101516
0.101371
0.10122
0.101065
0.100905
0.100742
0.100574
0.100402
0.100227
0.100049
0.0998677
0.0996836
0.0994967
0.0993073
0.0991154
0.0989212
0.0987248
0.0985263
0.0983257
0.0981233
0.0979189
0.0977128
0.0975049
0.0972953
0.0970841
0.0968713
0.096657
0.0964413
0.0962241
0.0960056
0.0957857
0.0955644
0.0953416
0.0951172
0.0948905
0.0946605
0.0944256
0.0941827
0.0939259
0.0936497
0.0933293
0.0929868
0.092423
-0.00550053
-0.00562034
-0.00590673
-0.00632687
-0.00678484
-0.00722612
-0.00764602
-0.00805604
-0.00846693
-0.00888719
-0.00932292
-0.00977845
-0.0102554
-0.010754
-0.0112724
-0.0118078
-0.0123563
-0.0129134
-0.0134737
-0.0140319
-0.0145817
-0.0151171
-0.0156309
-0.0161163
-0.0165655
-0.0169715
-0.0173266
-0.017624
-0.0178562
-0.0180168
-0.0180989
-0.0180965
-0.0180034
-0.0178146
-0.017525
-0.0171306
-0.0166272
-0.0160122
-0.0152831
-0.0144386
-0.0134773
-0.0123992
-0.0112045
-0.00989476
-0.00847157
-0.00693778
-0.00529631
-0.00355119
-0.00170652
0.000232648
0.00226117
0.00437316
0.00656264
0.00882311
0.011148
0.0135304
0.0159633
0.0184397
0.0209525
0.0234945
0.0260586
0.0286379
0.0312253
0.0338144
0.0363989
0.0389726
0.0415293
0.0440634
0.0465697
0.0490428
0.0514777
0.0538702
0.0562165
0.0585132
0.0607568
0.0629443
0.0650731
0.067141
0.0691459
0.0710862
0.0729606
0.0747682
0.0765081
0.0781799
0.0797835
0.081319
0.0827866
0.084187
0.0855209
0.0867897
0.0879946
0.0891369
0.0902177
0.0912388
0.0922018
0.0931084
0.0939604
0.0947596
0.0955076
0.0962062
0.0968573
0.0974628
0.0980242
0.0985438
0.0990229
0.0994635
0.0998672
0.100236
0.100571
0.100874
0.101147
0.101391
0.101607
0.101798
0.101964
0.102106
0.102227
0.102326
0.102406
0.102468
0.102511
0.102539
0.10255
0.102547
0.10253
0.102501
0.102459
0.102405
0.102341
0.102267
0.102184
0.102091
0.101991
0.101882
0.101767
0.101644
0.101515
0.10138
0.10124
0.101094
0.100944
0.100788
0.100629
0.100465
0.100298
0.100127
0.0999522