/*--------------------------------*- C++ -*----------------------------------*\
| =========                 |                                                 |
| \\      /  F ield         | OpenFOAM: The Open Source CFD Toolbox           |
|  \\    /   O peration     | Version:  2112                                  |
|   \\  /    A nd           | Website:  www.openfoam.com                      |
|    \\/     M anipulation  |                                                 |
\*---------------------------------------------------------------------------*/
FoamFile
{
    version     2.0;
    format      ascii;
    arch        "LSB;label=32;scalar=64";
    class       surfaceScalarField;
    location    "200";
    object      phi;
}
// * * * * * * * * * * * * * * * * * * * * * * * * * * * * * * * * * * * * * //

dimensions      [0 3 -1 0 0 0 0];

oriented        oriented;

internalField   nonuniform List<scalar> 
24170
(
1.96547e-08
-1.17003e-08
3.03069e-08
-1.06522e-08
3.88243e-08
-8.51745e-09
4.58761e-08
-7.05192e-09
5.1723e-08
-5.847e-09
5.6428e-08
-4.70508e-09
6.01955e-08
-3.76751e-09
6.32225e-08
-3.02712e-09
6.56753e-08
-2.45283e-09
6.7691e-08
-2.01579e-09
6.93868e-08
-1.69581e-09
7.08707e-08
-1.48402e-09
7.22573e-08
-1.38667e-09
7.36927e-08
-1.43545e-09
7.54113e-08
-1.7187e-09
7.78964e-08
-2.48519e-09
8.21404e-08
-4.24415e-09
-1.18961e-08
9.40365e-08
4.02565e-08
-2.61116e-08
5.45514e-08
-2.49472e-08
6.64348e-08
-2.0401e-08
7.66737e-08
-1.7291e-08
8.53644e-08
-1.45378e-08
9.27141e-08
-1.20549e-08
9.89341e-08
-9.98757e-09
1.04223e-07
-8.31653e-09
1.08757e-07
-6.98646e-09
1.12686e-07
-5.94485e-09
1.16144e-07
-5.15415e-09
1.19257e-07
-4.59744e-09
1.22156e-07
-4.28562e-09
1.24997e-07
-4.27613e-09
1.27996e-07
-4.71816e-09
1.31498e-07
-5.98767e-09
1.36151e-07
-8.89745e-09
-1.60388e-08
1.40294e-07
5.88974e-08
-3.79635e-08
7.37452e-08
-3.9795e-08
8.71206e-08
-3.37764e-08
9.86023e-08
-2.87727e-08
1.08437e-07
-2.43726e-08
1.16903e-07
-2.05213e-08
1.2421e-07
-1.72946e-08
1.30546e-07
-1.46521e-08
1.36077e-07
-1.25179e-08
1.40953e-07
-1.082e-08
1.45304e-07
-9.50528e-09
1.49254e-07
-8.548e-09
1.52927e-07
-7.95822e-09
1.56453e-07
-7.80283e-09
1.59982e-07
-8.24655e-09
1.63649e-07
-9.65531e-09
1.67395e-07
-1.26425e-08
-1.82028e-08
1.69559e-07
8.06706e-08
-4.66671e-08
9.43199e-08
-5.34443e-08
1.07855e-07
-4.73119e-08
1.19748e-07
-4.06658e-08
1.30072e-07
-3.46967e-08
1.39067e-07
-2.95156e-08
1.46919e-07
-2.51472e-08
1.538e-07
-2.15331e-08
1.59864e-07
-1.85822e-08
1.65252e-07
-1.62072e-08
1.70088e-07
-1.43418e-08
1.7449e-07
-1.295e-08
1.78567e-07
-1.20352e-08
1.82422e-07
-1.16578e-08
1.86137e-07
-1.19615e-08
1.89706e-07
-1.32248e-08
1.9285e-07
-1.57867e-08
-1.9847e-08
1.94494e-07
1.06554e-07
-5.21742e-08
1.18222e-07
-6.51127e-08
1.30999e-07
-6.00883e-08
1.42721e-07
-5.23875e-08
1.53112e-07
-4.50879e-08
1.62284e-07
-3.86875e-08
1.70375e-07
-3.32387e-08
1.77528e-07
-2.86856e-08
1.83877e-07
-2.49315e-08
1.89549e-07
-2.18798e-08
1.94661e-07
-1.94535e-08
1.99317e-07
-1.76062e-08
2.03612e-07
-1.63294e-08
2.07619e-07
-1.56648e-08
2.11371e-07
-1.57137e-08
2.14792e-07
-1.6646e-08
2.17585e-07
-1.85799e-08
-2.13521e-08
2.1909e-07
1.37258e-07
-5.46879e-08
1.46463e-07
-7.43185e-08
1.5779e-07
-7.14146e-08
1.68816e-07
-6.34138e-08
1.78887e-07
-5.51594e-08
1.8793e-07
-4.77298e-08
1.96003e-07
-4.13118e-08
2.03205e-07
-3.58875e-08
2.09643e-07
-3.13704e-08
2.15427e-07
-2.76631e-08
2.20655e-07
-2.46822e-08
2.2542e-07
-2.2371e-08
2.29797e-07
-2.0706e-08
2.33834e-07
-1.97026e-08
2.37532e-07
-1.94119e-08
2.4079e-07
-1.99041e-08
2.43359e-07
-2.11486e-08
-2.28467e-08
2.44854e-07
1.73439e-07
-5.45984e-08
1.79858e-07
-8.07381e-08
1.8918e-07
-8.07361e-08
1.99005e-07
-7.32393e-08
2.08357e-07
-6.45114e-08
2.16951e-07
-5.63234e-08
2.24741e-07
-4.91021e-08
2.31767e-07
-4.29135e-08
2.381e-07
-3.77034e-08
2.43822e-07
-3.33849e-08
2.49014e-07
-2.98738e-08
2.53748e-07
-2.71051e-08
2.58081e-07
-2.5039e-08
2.62041e-07
-2.36626e-08
2.65607e-07
-2.29783e-08
2.68681e-07
-2.29778e-08
2.71076e-07
-2.35442e-08
-2.43601e-08
2.7259e-07
2.15676e-07
-5.24051e-08
2.19141e-07
-8.42038e-08
2.26024e-07
-8.76187e-08
2.34166e-07
-8.13816e-08
2.4238e-07
-7.2725e-08
2.50178e-07
-6.41214e-08
2.57394e-07
-5.63186e-08
2.63996e-07
-4.95152e-08
2.70008e-07
-4.37153e-08
2.75479e-07
-3.88561e-08
2.80465e-07
-3.48603e-08
2.85018e-07
-3.16582e-08
2.89175e-07
-2.91954e-08
2.92945e-07
-2.74326e-08
2.96298e-07
-2.63314e-08
2.99149e-07
-2.58288e-08
3.01373e-07
-2.57681e-08
-2.58657e-08
3.02878e-07
2.64463e-07
-4.86491e-08
2.64985e-07
-8.47255e-08
2.69119e-07
-9.17534e-08
2.75138e-07
-8.74002e-08
2.81785e-07
-7.93723e-08
2.88412e-07
-7.07485e-08
2.94731e-07
-6.26376e-08
3.00629e-07
-5.54128e-08
3.06075e-07
-4.91617e-08
3.11081e-07
-4.38615e-08
3.15671e-07
-3.94508e-08
3.19874e-07
-3.58608e-08
3.23705e-07
-3.30267e-08
3.2716e-07
-3.08879e-08
3.30205e-07
-2.93763e-08
3.32773e-07
-2.83961e-08
3.34786e-07
-2.77818e-08
-2.72994e-08
3.3622e-07
3.20202e-07
-4.38648e-08
3.17968e-07
-8.24924e-08
3.19183e-07
-9.29686e-08
3.22708e-07
-9.09247e-08
3.27374e-07
-8.40385e-08
3.32439e-07
-7.58134e-08
3.3751e-07
-6.77085e-08
3.42392e-07
-6.02954e-08
3.46998e-07
-5.37675e-08
3.51293e-07
-4.81568e-08
3.55271e-07
-4.34281e-08
3.5893e-07
-3.95203e-08
3.62268e-07
-3.63645e-08
3.65266e-07
-3.38862e-08
3.67889e-07
-3.19995e-08
3.70087e-07
-3.05937e-08
3.71817e-07
-2.95123e-08
-2.85694e-08
3.73087e-07
3.83171e-07
-3.85327e-08
3.78527e-07
-7.78484e-08
3.76807e-07
-9.12492e-08
3.7757e-07
-9.1687e-08
3.79885e-07
-8.63535e-08
3.83002e-07
-7.89308e-08
3.86459e-07
-7.11652e-08
3.89991e-07
-6.38277e-08
3.93453e-07
-5.72294e-08
3.96766e-07
-5.14695e-08
3.99885e-07
-4.65479e-08
4.02785e-07
-4.24196e-08
4.05439e-07
-3.90183e-08
4.07817e-07
-3.62647e-08
4.09883e-07
-3.40655e-08
4.11598e-07
-3.23088e-08
4.12942e-07
-3.08561e-08
-2.95614e-08
4.13934e-07
3.77908e-07
-3.37501e-08
3.72533e-07
-7.2474e-08
3.68925e-07
-8.76408e-08
3.67332e-07
-9.00942e-08
3.67252e-07
-8.62737e-08
3.68115e-07
-7.97932e-08
3.69514e-07
-7.25642e-08
3.71191e-07
-6.55054e-08
3.72988e-07
-5.90258e-08
3.74803e-07
-5.32849e-08
3.76574e-07
-4.83185e-08
3.78254e-07
-4.41001e-08
3.79807e-07
-4.05715e-08
3.81198e-07
-3.76557e-08
3.82394e-07
-3.52609e-08
3.83366e-07
-3.32808e-08
3.84101e-07
-3.15918e-08
-3.00881e-08
3.84628e-07
4.99952e-07
-2.84265e-08
4.9243e-07
-6.49515e-08
4.86087e-07
-8.12977e-08
4.81731e-07
-8.57386e-08
4.79168e-07
-8.37112e-08
4.77908e-07
-7.85332e-08
4.77519e-07
-7.21747e-08
4.7769e-07
-6.5677e-08
4.78211e-07
-5.95463e-08
4.78935e-07
-5.40093e-08
4.79762e-07
-4.91451e-08
4.80615e-07
-4.49536e-08
4.81436e-07
-4.13916e-08
4.82171e-07
-3.83911e-08
4.82779e-07
-3.58686e-08
4.83227e-07
-3.37293e-08
4.83506e-07
-3.18709e-08
-3.02151e-08
4.83633e-07
6.62111e-07
-2.27904e-08
6.52363e-07
-5.52033e-08
6.42739e-07
-7.16735e-08
6.34704e-07
-7.77036e-08
6.28534e-07
-7.7542e-08
6.23976e-07
-7.39745e-08
6.20656e-07
-6.88553e-08
6.18254e-07
-6.32747e-08
6.16519e-07
-5.78114e-08
6.15263e-07
-5.27531e-08
6.14342e-07
-4.82243e-08
6.13645e-07
-4.42565e-08
6.13082e-07
-4.08286e-08
6.1258e-07
-3.78891e-08
6.12082e-07
-3.53697e-08
6.11546e-07
-3.31933e-08
6.10956e-07
-3.12809e-08
-2.95738e-08
6.10314e-07
8.74731e-07
-1.7055e-08
8.62963e-07
-4.3435e-08
8.49763e-07
-5.84743e-08
8.37271e-07
-6.52109e-08
8.26346e-07
-6.66168e-08
8.17139e-07
-6.47684e-08
8.09481e-07
-6.11972e-08
8.0312e-07
-5.69136e-08
7.97814e-07
-5.25053e-08
7.93352e-07
-4.82912e-08
7.89558e-07
-4.44296e-08
7.86283e-07
-4.09819e-08
7.83407e-07
-3.79522e-08
7.80828e-07
-3.53109e-08
7.78469e-07
-3.30105e-08
7.76271e-07
-3.09954e-08
7.74201e-07
-2.92101e-08
-2.76127e-08
7.7224e-07
1.1473e-06
-1.13181e-08
1.13385e-06
-2.99902e-08
1.11711e-06
-4.17332e-08
1.09972e-06
-4.78237e-08
1.08313e-06
-5.00288e-08
1.06802e-06
-4.96521e-08
1.05456e-06
-4.7736e-08
1.0427e-06
-4.5052e-08
1.03228e-06
-4.20925e-08
1.02314e-06
-3.9146e-08
1.01508e-06
-3.63705e-08
1.00794e-06
-3.38406e-08
1.00156e-06
-3.15793e-08
9.95832e-07
-2.95781e-08
9.90633e-07
-2.78114e-08
9.85884e-07
-2.62462e-08
9.81523e-07
-2.48493e-08
-2.35945e-08
9.77505e-07
1.48366e-06
-5.43172e-09
1.4687e-06
-1.50319e-08
1.44858e-06
-2.16185e-08
1.42623e-06
-2.54663e-08
1.40354e-06
-2.73418e-08
1.38171e-06
-2.78178e-08
1.36135e-06
-2.7376e-08
1.34271e-06
-2.64161e-08
1.32583e-06
-2.52165e-08
1.31064e-06
-2.39496e-08
1.29698e-06
-2.27157e-08
1.28471e-06
-2.15678e-08
1.27366e-06
-2.0527e-08
1.26367e-06
-1.95951e-08
1.25463e-06
-1.8763e-08
1.2464e-06
-1.8017e-08
1.23889e-06
-1.73431e-08
-1.67307e-08
1.23203e-06
1.87155e-06
1.0928e-09
1.8547e-06
1.80887e-09
1.83105e-06
2.0334e-09
1.80369e-06
1.89338e-09
1.77491e-06
1.4414e-09
1.7463e-06
7.94703e-10
1.71887e-06
5.00858e-11
1.69319e-06
-7.35334e-10
1.6695e-06
-1.52582e-09
1.64785e-06
-2.29711e-09
1.62816e-06
-3.03321e-09
1.61032e-06
-3.72376e-09
1.59416e-06
-4.36192e-09
1.5795e-06
-4.94314e-09
1.56621e-06
-5.46476e-09
1.55411e-06
-5.92624e-09
1.5431e-06
-6.32954e-09
-6.67697e-09
1.53305e-06
2.2621e-06
7.74974e-09
2.24223e-06
2.16745e-08
2.21377e-06
3.04961e-08
2.18081e-06
3.48491e-08
2.14621e-06
3.60436e-08
2.11188e-06
3.51219e-08
2.07903e-06
3.29027e-08
2.0483e-06
2.99989e-08
2.01995e-06
2.68189e-08
1.99404e-06
2.36142e-08
1.97047e-06
2.05323e-08
1.9491e-06
1.76537e-08
1.92972e-06
1.50161e-08
1.91214e-06
1.26313e-08
1.89618e-06
1.04954e-08
1.88166e-06
8.59544e-09
1.86842e-06
6.91305e-09
5.42427e-09
1.85632e-06
1.5541e-06
1.5609e-08
1.53642e-06
3.93525e-08
1.514e-06
5.29185e-08
1.49015e-06
5.87018e-08
1.46678e-06
5.94136e-08
1.44488e-06
5.70189e-08
1.42486e-06
5.29212e-08
1.4068e-06
4.80642e-08
1.3906e-06
4.30197e-08
1.3761e-06
3.81095e-08
1.36313e-06
3.35037e-08
1.3515e-06
2.92804e-08
1.34105e-06
2.54647e-08
1.33163e-06
2.20502e-08
1.32312e-06
1.90148e-08
1.31538e-06
1.63277e-08
1.30834e-06
1.39554e-08
1.18617e-08
1.3019e-06
1.23263e-06
2.3865e-08
1.21569e-06
5.62877e-08
1.19664e-06
7.19687e-08
1.17851e-06
7.68346e-08
1.16242e-06
7.55039e-08
1.14858e-06
7.08547e-08
1.13681e-06
6.46975e-08
1.12677e-06
5.80952e-08
1.11818e-06
5.16145e-08
1.11075e-06
4.55344e-08
1.10428e-06
3.99765e-08
1.09859e-06
3.49758e-08
1.09353e-06
3.05209e-08
1.089e-06
2.6577e-08
1.08492e-06
2.30992e-08
1.08121e-06
2.00397e-08
1.07781e-06
1.73515e-08
1.49882e-08
1.07468e-06
9.49354e-07
3.28701e-08
9.34662e-07
7.09801e-08
9.21131e-07
8.54991e-08
9.10491e-07
8.7475e-08
9.027e-07
8.32944e-08
8.97185e-07
7.63694e-08
8.93317e-07
6.85658e-08
8.90589e-07
6.08229e-08
8.88637e-07
5.35671e-08
8.87204e-07
4.69672e-08
8.86115e-07
4.10652e-08
8.8525e-07
3.58401e-08
8.84529e-07
3.12419e-08
8.83897e-07
2.72095e-08
8.83316e-07
2.36795e-08
8.82764e-07
2.05921e-08
8.82223e-07
1.78922e-08
1.55279e-08
8.81684e-07
7.11881e-07
4.19338e-08
7.01552e-07
8.13095e-08
6.95281e-07
9.17699e-08
6.92814e-07
8.9942e-08
6.93012e-07
8.30964e-08
6.94808e-07
7.45733e-08
6.97439e-07
6.5935e-08
7.00426e-07
5.78353e-08
7.03485e-07
5.05078e-08
7.06451e-07
4.40012e-08
7.09233e-07
3.82832e-08
7.11786e-07
3.32867e-08
7.14094e-07
2.89342e-08
7.16156e-07
2.51476e-08
7.17981e-07
2.18542e-08
7.19584e-07
1.89886e-08
7.20983e-07
1.64941e-08
1.43186e-08
7.22192e-07
5.20146e-07
4.96596e-08
5.16159e-07
8.52966e-08
5.17787e-07
9.01419e-08
5.22861e-07
8.48677e-08
5.29627e-07
7.63308e-08
5.36948e-07
6.72517e-08
5.44202e-07
5.86815e-08
5.51076e-07
5.09604e-08
5.57431e-07
4.41535e-08
5.63213e-07
3.82187e-08
5.68423e-07
3.30737e-08
5.73084e-07
2.86255e-08
5.77235e-07
2.4783e-08
5.80919e-07
2.14631e-08
5.84181e-07
1.85921e-08
5.87064e-07
1.6106e-08
5.89607e-07
1.39512e-08
1.208e-08
5.91845e-07
3.7018e-07
5.42934e-08
3.73621e-07
8.18553e-08
3.82492e-07
8.12706e-08
3.93492e-07
7.38679e-08
4.04853e-07
6.49697e-08
4.15724e-07
5.63809e-08
4.25765e-07
4.86404e-08
4.34871e-07
4.18545e-08
4.43041e-07
3.59835e-08
4.50323e-07
3.09363e-08
4.56788e-07
2.66086e-08
4.62513e-07
2.29002e-08
4.67576e-07
1.97204e-08
4.72049e-07
1.69903e-08
4.75999e-07
1.4642e-08
4.79487e-07
1.26179e-08
4.82567e-07
1.08709e-08
9.36146e-09
4.85285e-07
2.56171e-07
5.4182e-08
2.66885e-07
7.11411e-08
2.81363e-07
6.67933e-08
2.96233e-07
5.8997e-08
3.10189e-07
5.10143e-08
3.22842e-07
4.37283e-08
3.34149e-07
3.73331e-08
3.44176e-07
3.18279e-08
3.53026e-07
2.71326e-08
3.6082e-07
2.31426e-08
3.67674e-07
1.97543e-08
3.737e-07
1.68743e-08
3.78998e-07
1.44225e-08
3.83658e-07
1.23305e-08
3.87759e-07
1.05413e-08
3.9137e-07
9.00637e-09
3.94554e-07
7.68713e-09
6.55472e-09
3.97361e-07
1.71751e-07
4.81415e-08
1.88427e-07
5.4465e-08
2.06301e-07
4.89195e-08
2.22981e-07
4.2317e-08
2.37816e-07
3.61794e-08
2.50862e-07
3.06821e-08
2.62292e-07
2.59034e-08
2.72277e-07
2.18424e-08
2.80989e-07
1.84213e-08
2.88586e-07
1.55455e-08
2.95213e-07
1.31266e-08
3.00999e-07
1.10883e-08
3.06055e-07
9.36654e-09
3.10478e-07
7.90823e-09
3.1435e-07
6.66939e-09
3.17743e-07
5.61281e-09
3.20722e-07
4.70814e-09
3.938e-09
3.23339e-07
1.1076e-07
3.56681e-08
1.31096e-07
3.41286e-08
1.49839e-07
3.01761e-08
1.6648e-07
2.56763e-08
1.80845e-07
2.18141e-08
1.93243e-07
1.82842e-08
2.03944e-07
1.5203e-08
2.1317e-07
1.2616e-08
2.21126e-07
1.04658e-08
2.27991e-07
8.68037e-09
2.33921e-07
7.19596e-09
2.39051e-07
5.95892e-09
2.43492e-07
4.92501e-09
2.47342e-07
4.05831e-09
2.50682e-07
3.32952e-09
2.53581e-07
2.71358e-09
2.56102e-07
2.1877e-09
1.7435e-09
2.58296e-07
6.73361e-08
1.73236e-08
8.74854e-08
1.39793e-08
1.04409e-07
1.32521e-08
1.19327e-07
1.07582e-08
1.3205e-07
9.09129e-09
1.42857e-07
7.47733e-09
1.52014e-07
6.04629e-09
1.59763e-07
4.867e-09
1.66322e-07
3.90692e-09
1.71877e-07
3.12469e-09
1.76587e-07
2.48654e-09
1.80581e-07
1.96482e-09
1.83969e-07
1.53702e-09
1.86842e-07
1.18539e-09
1.89276e-07
8.95629e-10
1.91334e-07
6.55501e-10
1.9307e-07
4.5174e-10
2.78067e-10
1.94535e-07
3.11161e-08
4.50954e-08
5.83474e-08
6.91057e-08
7.8197e-08
8.56743e-08
9.17206e-08
9.65876e-08
1.00495e-07
1.03619e-07
1.06106e-07
1.08071e-07
1.09608e-07
1.10793e-07
1.11689e-07
1.12344e-07
1.12796e-07
1.13074e-07
1.59612e-09
-1.59545e-09
4.19157e-09
-2.59441e-09
6.61191e-09
-2.41918e-09
8.28214e-09
-1.66942e-09
8.9979e-09
-7.14669e-10
8.76214e-09
2.36456e-10
7.6932e-09
1.07003e-09
5.94473e-09
1.74902e-09
3.65639e-09
2.28942e-09
9.29857e-10
2.72685e-09
-2.17562e-09
3.10645e-09
-5.64724e-09
3.47165e-09
-9.49662e-09
3.85021e-09
-1.37591e-08
4.26226e-09
-1.84744e-08
4.7161e-09
-2.36834e-08
5.20855e-09
-2.94109e-08
5.72844e-09
-3.5672e-08
6.26042e-09
-4.24583e-08
6.78715e-09
-4.97514e-08
7.2921e-09
-5.7509e-08
7.75852e-09
-6.56812e-08
8.17074e-09
-7.4196e-08
8.51547e-09
-8.29807e-08
8.7829e-09
-9.19466e-08
8.96645e-09
-1.01012e-07
9.06318e-09
-1.10084e-07
9.07308e-09
-1.19085e-07
8.99883e-09
-1.27929e-07
8.84498e-09
-1.36549e-07
8.61802e-09
-1.44873e-07
8.3255e-09
-1.5285e-07
7.9754e-09
-1.60425e-07
7.5759e-09
-1.67561e-07
7.13502e-09
-1.74219e-07
6.66025e-09
-1.80378e-07
6.15835e-09
-1.86011e-07
5.6353e-09
-1.91108e-07
5.096e-09
-1.95651e-07
4.54463e-09
-1.99636e-07
3.98447e-09
-2.03053e-07
3.4185e-09
-2.05903e-07
2.84905e-09
-2.08178e-07
2.27796e-09
-2.09885e-07
1.70571e-09
-2.11015e-07
1.13263e-09
-2.11577e-07
5.61496e-10
-2.11581e-07
5.78249e-12
-2.11074e-07
-5.06832e-10
-2.10101e-07
-9.70608e-10
-2.08698e-07
-1.40333e-09
-2.06883e-07
-1.813e-09
-2.04678e-07
-2.20411e-09
-2.02098e-07
-2.57832e-09
-1.99161e-07
-2.93682e-09
-1.9588e-07
-3.27851e-09
-1.92273e-07
-3.60562e-09
-1.88352e-07
-3.91766e-09
-1.84138e-07
-4.21171e-09
-1.79645e-07
-4.48988e-09
-1.74891e-07
-4.75229e-09
-1.6989e-07
-4.99791e-09
-1.6466e-07
-5.22708e-09
-1.59217e-07
-5.43961e-09
-1.53578e-07
-5.63582e-09
-1.47759e-07
-5.81582e-09
-1.41777e-07
-5.97971e-09
-1.35647e-07
-6.12736e-09
-1.29385e-07
-6.25851e-09
-1.2301e-07
-6.37306e-09
-1.16536e-07
-6.47173e-09
-1.09979e-07
-6.55508e-09
-1.03353e-07
-6.62345e-09
-9.66747e-08
-6.67722e-09
-8.99548e-08
-6.71663e-09
-8.32108e-08
-6.74223e-09
-7.64525e-08
-6.75423e-09
-6.96967e-08
-6.75325e-09
-6.29525e-08
-6.73966e-09
-5.62361e-08
-6.71417e-09
-4.95545e-08
-6.67695e-09
-4.29237e-08
-6.62868e-09
-3.63497e-08
-6.56971e-09
-2.98476e-08
-6.50084e-09
-2.3421e-08
-6.42273e-09
-1.70829e-08
-6.33692e-09
-1.08374e-08
-6.2423e-09
-4.70334e-09
-6.13397e-09
1.31156e-09
-6.01484e-09
7.20922e-09
-5.9004e-09
1.2984e-08
-5.7789e-09
1.86218e-08
-5.64019e-09
2.41167e-08
-5.49537e-09
2.94657e-08
-5.34813e-09
3.46667e-08
-5.19966e-09
3.9719e-08
-5.05061e-09
4.46217e-08
-4.90088e-09
4.93743e-08
-4.75065e-09
5.39764e-08
-4.59996e-09
5.84277e-08
-4.4491e-09
6.27281e-08
-4.29799e-09
6.68778e-08
-4.14712e-09
7.08775e-08
-3.99646e-09
7.47273e-08
-3.84648e-09
7.84283e-08
-3.69696e-09
8.19806e-08
-3.5486e-09
8.53856e-08
-3.40115e-09
8.86438e-08
-3.25538e-09
9.17576e-08
-3.11099e-09
9.47281e-08
-2.96867e-09
9.75579e-08
-2.82806e-09
1.00249e-07
-2.68982e-09
1.02803e-07
-2.5536e-09
1.05224e-07
-2.42001e-09
1.07513e-07
-2.28868e-09
1.09673e-07
-2.16021e-09
1.11707e-07
-2.03423e-09
1.13618e-07
-1.91127e-09
1.15409e-07
-1.79093e-09
1.17081e-07
-1.67369e-09
1.1864e-07
-1.55926e-09
1.20087e-07
-1.448e-09
1.21427e-07
-1.33961e-09
1.22662e-07
-1.23443e-09
1.23795e-07
-1.13215e-09
1.24828e-07
-1.03327e-09
1.25766e-07
-9.37438e-10
1.2661e-07
-8.44978e-10
1.27366e-07
-7.55582e-10
1.28035e-07
-6.69607e-10
1.28621e-07
-5.86731e-10
1.29128e-07
-5.07322e-10
1.29558e-07
-4.31016e-10
1.29915e-07
-3.58007e-10
1.30202e-07
-2.87908e-10
1.30422e-07
-2.209e-10
1.30578e-07
-1.56485e-10
1.30671e-07
-9.45084e-11
1.30703e-07
-3.30643e-11
1.30673e-07
2.83528e-11
1.30584e-07
8.69755e-11
1.30442e-07
1.40211e-10
1.30252e-07
1.88454e-10
1.30018e-07
2.32541e-10
1.29744e-07
2.73255e-10
1.29432e-07
3.10967e-10
1.29085e-07
3.461e-10
1.28705e-07
3.7894e-10
1.28295e-07
4.09652e-10
1.27856e-07
4.38229e-10
1.27391e-07
4.64831e-10
1.26901e-07
4.89499e-10
1.26388e-07
5.12373e-10
1.25854e-07
5.33554e-10
1.253e-07
5.53222e-10
1.24728e-07
5.71495e-10
1.24139e-07
5.8859e-10
1.23534e-07
6.04714e-10
1.22914e-07
6.20126e-10
1.22278e-07
6.35002e-10
1.21628e-07
6.4964e-10
1.20964e-07
6.64311e-10
1.20284e-07
6.79331e-10
1.19589e-07
6.95161e-10
1.18876e-07
7.12481e-10
1.18144e-07
7.32111e-10
1.17388e-07
7.55079e-10
1.16606e-07
7.82686e-10
1.15789e-07
8.16726e-10
1.14929e-07
8.59584e-10
1.14014e-07
9.14552e-10
1.13028e-07
9.86164e-10
1.11947e-07
1.08089e-09
1.10739e-07
1.2082e-09
1.09357e-07
1.38208e-09
1.07733e-07
1.62462e-09
1.05757e-07
1.9755e-09
1.03271e-07
2.48619e-09
9.9904e-08
3.36769e-09
9.53162e-08
4.58795e-09
7.78007e-09
8.75364e-08
1.56442e-09
-3.15887e-09
3.12092e-09
-4.14945e-09
3.59116e-09
-2.88798e-09
2.84023e-09
-9.17545e-10
9.8668e-10
1.14005e-09
-1.83989e-09
3.06373e-09
-5.53988e-09
4.77107e-09
-1.00386e-08
6.24826e-09
-1.52726e-08
7.5243e-09
-2.11959e-08
8.6505e-09
-2.77705e-08
9.6818e-09
-3.49629e-08
1.06641e-08
-4.27404e-08
1.16283e-08
-5.10676e-08
1.25893e-08
-5.98961e-08
1.35452e-08
-6.91684e-08
1.44805e-08
-7.88109e-08
1.53716e-08
-8.87416e-08
1.61907e-08
-9.88631e-08
1.69093e-08
-1.09074e-07
1.75027e-08
-1.19268e-07
1.79529e-08
-1.29346e-07
1.82481e-08
-1.39213e-07
1.83826e-08
-1.48787e-07
1.83558e-08
-1.57992e-07
1.81724e-08
-1.66771e-07
1.78409e-08
-1.75071e-07
1.73732e-08
-1.82857e-07
1.67836e-08
-1.90099e-07
1.60875e-08
-1.96782e-07
1.53005e-08
-2.02894e-07
1.44382e-08
-2.08435e-07
1.35153e-08
-2.13404e-07
1.25453e-08
-2.1781e-07
1.15404e-08
-2.21659e-07
1.05111e-08
-2.24968e-07
9.46635e-09
-2.27745e-07
8.41383e-09
-2.30009e-07
7.35965e-09
-2.31772e-07
6.309e-09
-2.33054e-07
5.2659e-09
-2.33869e-07
4.2338e-09
-2.34235e-07
3.21529e-09
-2.34169e-07
2.213e-09
-2.33693e-07
1.22988e-09
-2.3283e-07
2.70904e-10
-2.31612e-07
-6.56791e-10
-2.30057e-07
-1.54814e-09
-2.28156e-07
-2.40686e-09
-2.25889e-07
-3.23676e-09
-2.23254e-07
-4.03768e-09
-2.20256e-07
-4.80967e-09
-2.16907e-07
-5.55315e-09
-2.13215e-07
-6.26805e-09
-2.09197e-07
-6.95431e-09
-2.04863e-07
-7.61139e-09
-2.00228e-07
-8.23932e-09
-1.95306e-07
-8.83731e-09
-1.90112e-07
-9.4045e-09
-1.84659e-07
-9.94077e-09
-1.78964e-07
-1.04459e-08
-1.7304e-07
-1.09193e-08
-1.66905e-07
-1.13609e-08
-1.60572e-07
-1.17704e-08
-1.54058e-07
-1.21482e-08
-1.47377e-07
-1.24945e-08
-1.40545e-07
-1.28095e-08
-1.33578e-07
-1.3093e-08
-1.2649e-07
-1.33452e-08
-1.19295e-07
-1.35659e-08
-1.1201e-07
-1.37557e-08
-1.04648e-07
-1.39155e-08
-9.72242e-08
-1.4046e-08
-8.97522e-08
-1.41481e-08
-8.2245e-08
-1.42222e-08
-7.47166e-08
-1.42692e-08
-6.71789e-08
-1.42898e-08
-5.96455e-08
-1.42849e-08
-5.21275e-08
-1.42554e-08
-4.46375e-08
-1.42024e-08
-3.71857e-08
-1.41265e-08
-2.97839e-08
-1.40289e-08
-2.2441e-08
-1.39105e-08
-1.51681e-08
-1.37725e-08
-7.97276e-09
-1.36162e-08
-8.65364e-10
-1.34432e-08
6.14932e-09
-1.32556e-08
1.30691e-08
-1.30533e-08
1.98904e-08
-1.28363e-08
2.65951e-08
-1.26068e-08
3.31761e-08
-1.23624e-08
3.96383e-08
-1.21036e-08
4.59779e-08
-1.18352e-08
5.21907e-08
-1.15602e-08
5.82725e-08
-1.12806e-08
6.42204e-08
-1.09973e-08
7.00317e-08
-1.0711e-08
7.57048e-08
-1.04223e-08
8.12379e-08
-1.01316e-08
8.66298e-08
-9.83936e-09
9.18796e-08
-9.5461e-09
9.69868e-08
-9.25225e-09
1.01951e-07
-8.95832e-09
1.06772e-07
-8.66473e-09
1.1145e-07
-8.37193e-09
1.15985e-07
-8.08038e-09
1.20377e-07
-7.79053e-09
1.24627e-07
-7.50287e-09
1.28735e-07
-7.21776e-09
1.32704e-07
-6.9356e-09
1.36533e-07
-6.65666e-09
1.40226e-07
-6.38131e-09
1.43783e-07
-6.10975e-09
1.47205e-07
-5.84232e-09
1.50496e-07
-5.57916e-09
1.53656e-07
-5.32055e-09
1.56689e-07
-5.0666e-09
1.59595e-07
-4.81751e-09
1.62377e-07
-4.57338e-09
1.65036e-07
-4.33438e-09
1.67577e-07
-4.10055e-09
1.70001e-07
-3.87206e-09
1.7231e-07
-3.64891e-09
1.74508e-07
-3.43128e-09
1.76595e-07
-3.21914e-09
1.78575e-07
-3.0127e-09
1.80449e-07
-2.81193e-09
1.82221e-07
-2.61693e-09
1.83893e-07
-2.4277e-09
1.85467e-07
-2.24434e-09
1.86947e-07
-2.06677e-09
1.88334e-07
-1.89505e-09
1.89631e-07
-1.72905e-09
1.90841e-07
-1.56874e-09
1.91966e-07
-1.41394e-09
1.93009e-07
-1.26459e-09
1.93972e-07
-1.1204e-09
1.94858e-07
-9.81034e-10
1.95669e-07
-8.46235e-10
1.96412e-07
-7.15967e-10
1.97088e-07
-5.90544e-10
1.97697e-07
-4.70816e-10
1.98241e-07
-3.57267e-10
1.98722e-07
-2.49739e-10
1.99142e-07
-1.47813e-10
1.99503e-07
-5.08708e-11
1.99807e-07
4.15417e-11
2.00056e-07
1.29393e-10
2.00252e-07
2.12624e-10
2.00398e-07
2.91479e-10
2.00496e-07
3.66253e-10
2.00548e-07
4.37152e-10
2.00556e-07
5.0439e-10
2.00521e-07
5.68195e-10
2.00445e-07
6.288e-10
2.00329e-07
6.86461e-10
2.00176e-07
7.41513e-10
1.99986e-07
7.94359e-10
1.9976e-07
8.45417e-10
1.995e-07
8.95054e-10
1.99205e-07
9.43732e-10
1.98877e-07
9.92056e-10
1.98516e-07
1.04081e-09
1.98119e-07
1.09101e-09
1.97688e-07
1.14394e-09
1.97219e-07
1.2012e-09
1.96709e-07
1.26484e-09
1.96154e-07
1.33748e-09
1.95548e-07
1.42274e-09
1.94882e-07
1.52538e-09
1.94144e-07
1.65197e-09
1.93319e-07
1.81153e-09
1.92383e-07
2.01674e-09
1.91306e-07
2.28622e-09
1.90041e-07
2.64684e-09
1.88523e-07
3.14243e-09
1.86661e-07
3.83852e-09
1.84286e-07
4.86149e-09
1.81224e-07
6.43046e-09
1.76877e-07
8.93466e-09
1.32622e-08
1.71396e-07
2.61568e-10
-3.41964e-09
-8.3726e-10
-3.04946e-09
-3.28491e-09
-4.39339e-10
-6.72079e-09
2.5189e-09
-1.09399e-08
5.3598e-09
-1.5857e-08
7.98127e-09
-2.14417e-08
1.03563e-08
-2.76813e-08
1.24881e-08
-3.45592e-08
1.44027e-08
-4.20482e-08
1.61396e-08
-5.0104e-08
1.7738e-08
-5.86666e-08
1.92266e-08
-6.76574e-08
2.06194e-08
-7.69833e-08
2.19151e-08
-8.65383e-08
2.31005e-08
-9.62124e-08
2.41544e-08
-1.05893e-07
2.50528e-08
-1.15476e-07
2.57733e-08
-1.24865e-07
2.62982e-08
-1.33979e-07
2.66164e-08
-1.42749e-07
2.67239e-08
-1.51125e-07
2.66231e-08
-1.59064e-07
2.63222e-08
-1.66542e-07
2.58335e-08
-1.73542e-07
2.51727e-08
-1.80059e-07
2.43574e-08
-1.86092e-07
2.34066e-08
-1.91648e-07
2.23392e-08
-1.96734e-07
2.11738e-08
-2.01362e-07
1.9928e-08
-2.05542e-07
1.86179e-08
-2.09285e-07
1.72581e-08
-2.12601e-07
1.58615e-08
-2.155e-07
1.44392e-08
-2.1799e-07
1.3001e-08
-2.20079e-07
1.15548e-08
-2.21772e-07
1.01076e-08
-2.23078e-07
8.66512e-09
-2.24e-07
7.23211e-09
-2.24547e-07
5.8127e-09
-2.24724e-07
4.41042e-09
-2.24537e-07
3.02836e-09
-2.23993e-07
1.66954e-09
-2.231e-07
3.37209e-10
-2.21864e-07
-9.64992e-10
-2.20286e-07
-2.23426e-09
-2.18363e-07
-3.46982e-09
-2.16097e-07
-4.67283e-09
-2.1349e-07
-5.84346e-09
-2.10547e-07
-6.98026e-09
-2.07274e-07
-8.08182e-09
-2.03679e-07
-9.14688e-09
-1.99773e-07
-1.01742e-08
-1.95564e-07
-1.11626e-08
-1.91063e-07
-1.21109e-08
-1.86284e-07
-1.30181e-08
-1.81237e-07
-1.38831e-08
-1.75935e-07
-1.47049e-08
-1.70392e-07
-1.54827e-08
-1.64621e-07
-1.62158e-08
-1.58636e-07
-1.69036e-08
-1.5245e-07
-1.75456e-08
-1.46078e-07
-1.81414e-08
-1.39534e-07
-1.86911e-08
-1.32833e-07
-1.91949e-08
-1.25988e-07
-1.96532e-08
-1.19014e-07
-2.0066e-08
-1.11925e-07
-2.04336e-08
-1.04734e-07
-2.0756e-08
-9.74555e-08
-2.10336e-08
-9.01028e-08
-2.12674e-08
-8.26896e-08
-2.14585e-08
-7.52291e-08
-2.1608e-08
-6.77339e-08
-2.17166e-08
-6.02167e-08
-2.17856e-08
-5.26894e-08
-2.18161e-08
-4.5164e-08
-2.18093e-08
-3.76517e-08
-2.17667e-08
-3.01637e-08
-2.16895e-08
-2.27101e-08
-2.15791e-08
-1.53012e-08
-2.1437e-08
-7.94596e-09
-2.12648e-08
-6.5297e-10
-2.10648e-08
6.56962e-09
-2.0838e-08
1.37134e-08
-2.05863e-08
2.0771e-08
-2.03125e-08
2.77368e-08
-2.00188e-08
3.46077e-08
-1.97072e-08
4.13786e-08
-1.93786e-08
4.8047e-08
-1.90319e-08
5.46109e-08
-1.86681e-08
6.10657e-08
-1.82899e-08
6.7406e-08
-1.79001e-08
7.3627e-08
-1.75009e-08
7.97246e-08
-1.70942e-08
8.56957e-08
-1.66813e-08
9.15376e-08
-1.62634e-08
9.72483e-08
-1.58414e-08
1.02826e-07
-1.54163e-08
1.0827e-07
-1.49888e-08
1.13579e-07
-1.45599e-08
1.18752e-07
-1.41303e-08
1.2379e-07
-1.37007e-08
1.28692e-07
-1.32719e-08
1.33458e-07
-1.28444e-08
1.38088e-07
-1.24192e-08
1.42583e-07
-1.19967e-08
1.46944e-07
-1.15777e-08
1.51172e-07
-1.11625e-08
1.55268e-07
-1.07518e-08
1.59233e-07
-1.03459e-08
1.63069e-07
-9.94536e-09
1.66777e-07
-9.55043e-09
1.7036e-07
-9.1615e-09
1.73818e-07
-8.77881e-09
1.77154e-07
-8.40268e-09
1.8037e-07
-8.03329e-09
1.83467e-07
-7.6709e-09
1.86447e-07
-7.31566e-09
1.89314e-07
-6.96774e-09
1.92069e-07
-6.62725e-09
1.94715e-07
-6.29435e-09
1.97253e-07
-5.96913e-09
1.99686e-07
-5.65173e-09
2.02016e-07
-5.34226e-09
2.04244e-07
-5.04082e-09
2.06375e-07
-4.74743e-09
2.08409e-07
-4.46214e-09
2.10349e-07
-4.18494e-09
2.12198e-07
-3.91582e-09
2.13957e-07
-3.65474e-09
2.1563e-07
-3.4017e-09
2.17217e-07
-3.15659e-09
2.18722e-07
-2.9193e-09
2.20147e-07
-2.68972e-09
2.21493e-07
-2.46764e-09
2.22764e-07
-2.25283e-09
2.23962e-07
-2.04528e-09
2.25091e-07
-1.84517e-09
2.26151e-07
-1.65242e-09
2.27146e-07
-1.46709e-09
2.28077e-07
-1.28934e-09
2.28946e-07
-1.11915e-09
2.29754e-07
-9.56278e-10
2.30503e-07
-8.00418e-10
2.31195e-07
-6.51209e-10
2.31832e-07
-5.08388e-10
2.32416e-07
-3.71809e-10
2.32949e-07
-2.41305e-10
2.33431e-07
-1.16541e-10
2.33865e-07
2.82656e-12
2.34252e-07
1.17019e-10
2.34594e-07
2.26194e-10
2.34892e-07
3.30699e-10
2.35147e-07
4.30917e-10
2.35361e-07
5.27312e-10
2.35535e-07
6.20406e-10
2.35669e-07
7.1075e-10
2.35765e-07
7.98878e-10
2.35823e-07
8.85503e-10
2.35843e-07
9.71505e-10
2.35826e-07
1.05803e-09
2.3577e-07
1.14651e-09
2.35675e-07
1.23879e-09
2.35539e-07
1.33711e-09
2.35359e-07
1.44441e-09
2.35132e-07
1.56448e-09
2.34853e-07
1.70244e-09
2.34513e-07
1.8651e-09
2.34103e-07
2.0617e-09
2.33609e-07
2.30492e-09
2.33014e-07
2.61245e-09
2.3229e-07
3.00997e-09
2.31403e-07
3.53406e-09
2.30302e-07
4.24347e-09
2.28919e-07
5.22131e-09
2.2715e-07
6.63104e-09
2.24887e-07
8.6934e-09
2.21938e-07
1.1883e-08
1.67538e-08
2.18447e-07
-1.4467e-09
-1.97228e-09
-5.00367e-09
5.08263e-10
-9.67624e-09
4.23387e-09
-1.5002e-08
7.84504e-09
-2.08327e-08
1.11908e-08
-2.71213e-08
1.42701e-08
-3.38553e-08
1.70906e-08
-4.10291e-08
1.96619e-08
-4.86256e-08
2.19995e-08
-5.66084e-08
2.41225e-08
-6.49184e-08
2.60481e-08
-7.34777e-08
2.77859e-08
-8.21941e-08
2.9336e-08
-9.09692e-08
3.069e-08
-9.97028e-08
3.18342e-08
-1.08302e-07
3.27536e-08
-1.16684e-07
3.34352e-08
-1.24783e-07
3.38713e-08
-1.32544e-07
3.40597e-08
-1.39933e-07
3.4005e-08
-1.46925e-07
3.37164e-08
-1.5351e-07
3.32078e-08
-1.59684e-07
3.24961e-08
-1.65451e-07
3.16003e-08
-1.70818e-07
3.05403e-08
-1.75797e-07
2.93363e-08
-1.80398e-07
2.8008e-08
-1.84633e-07
2.65742e-08
-1.88512e-07
2.50525e-08
-1.92043e-07
2.34588e-08
-1.95232e-07
2.18076e-08
-1.98086e-07
2.01117e-08
-2.00607e-07
1.83825e-08
-2.02798e-07
1.66298e-08
-2.04659e-07
1.48621e-08
-2.06191e-07
1.30869e-08
-2.07394e-07
1.13105e-08
-2.08268e-07
9.53838e-09
-2.08811e-07
7.77539e-09
-2.09024e-07
6.02581e-09
-2.08907e-07
4.29348e-09
-2.08461e-07
2.58193e-09
-2.07685e-07
8.94543e-10
-2.06583e-07
-7.65408e-10
-2.05152e-07
-2.39497e-09
-2.03394e-07
-3.99187e-09
-2.01309e-07
-5.55453e-09
-1.989e-07
-7.08173e-09
-1.96171e-07
-8.57181e-09
-1.93128e-07
-1.00226e-08
-1.89778e-07
-1.14319e-08
-1.86127e-07
-1.27973e-08
-1.82184e-07
-1.41168e-08
-1.77957e-07
-1.53883e-08
-1.73458e-07
-1.661e-08
-1.68695e-07
-1.778e-08
-1.63681e-07
-1.88966e-08
-1.58427e-07
-1.99586e-08
-1.52944e-07
-2.09645e-08
-1.47246e-07
-2.19133e-08
-1.41345e-07
-2.2804e-08
-1.35254e-07
-2.3636e-08
-1.28986e-07
-2.44087e-08
-1.22554e-07
-2.51219e-08
-1.15973e-07
-2.57755e-08
-1.09255e-07
-2.63703e-08
-1.02414e-07
-2.69064e-08
-9.54629e-08
-2.7384e-08
-8.84147e-08
-2.78036e-08
-8.12823e-08
-2.81655e-08
-7.40785e-08
-2.84706e-08
-6.68162e-08
-2.87204e-08
-5.95077e-08
-2.8916e-08
-5.21651e-08
-2.90587e-08
-4.48004e-08
-2.91499e-08
-3.74248e-08
-2.91911e-08
-3.00494e-08
-2.91841e-08
-2.26849e-08
-2.91306e-08
-1.53416e-08
-2.90322e-08
-8.02904e-09
-2.88911e-08
-7.56195e-10
-2.87093e-08
6.46802e-09
-2.84886e-08
1.36347e-08
-2.82309e-08
2.07359e-08
-2.79387e-08
2.77647e-08
-2.76146e-08
3.47144e-08
-2.72617e-08
4.15795e-08
-2.68835e-08
4.83551e-08
-2.64829e-08
5.50373e-08
-2.60613e-08
6.16233e-08
-2.56186e-08
6.81104e-08
-2.51557e-08
7.44947e-08
-2.46742e-08
8.07714e-08
-2.41766e-08
8.69361e-08
-2.36652e-08
9.29848e-08
-2.31424e-08
9.89141e-08
-2.26101e-08
1.04721e-07
-2.20699e-08
1.10404e-07
-2.15233e-08
1.1596e-07
-2.09718e-08
1.21389e-07
-2.04165e-08
1.26688e-07
-1.98587e-08
1.31859e-07
-1.92994e-08
1.36899e-07
-1.87397e-08
1.41809e-07
-1.81807e-08
1.46589e-07
-1.76232e-08
1.5124e-07
-1.70683e-08
1.5576e-07
-1.65166e-08
1.60153e-07
-1.59692e-08
1.64417e-07
-1.54265e-08