/*--------------------------------*- C++ -*----------------------------------*\
| =========                 |                                                 |
| \\      /  F ield         | OpenFOAM: The Open Source CFD Toolbox           |
|  \\    /   O peration     | Version:  2112                                  |
|   \\  /    A nd           | Website:  www.openfoam.com                      |
|    \\/     M anipulation  |                                                 |
\*---------------------------------------------------------------------------*/
FoamFile
{
    version     2.0;
    format      ascii;
    arch        "LSB;label=32;scalar=64";
    class       volVectorField;
    location    "200";
    object      U;
}
// * * * * * * * * * * * * * * * * * * * * * * * * * * * * * * * * * * * * * //

dimensions      [0 1 -1 0 0 0 0];

internalField   nonuniform List<vector> 
12225
(
(0.0356764 -0.037936 0)
(0.0850135 -0.00712834 0)
(0.10997 -0.00436634 0)
(0.133288 -0.00367274 0)
(0.153625 -0.00302324 0)
(0.170142 -0.00239027 0)
(0.183328 -0.00186714 0)
(0.193891 -0.00145495 0)
(0.202408 -0.00113607 0)
(0.209348 -0.00089412 0)
(0.215107 -0.000718107 0)
(0.220032 -0.000604389 0)
(0.224465 -0.000559705 0)
(0.228792 -0.000609076 0)
(0.233599 -0.000818404 0)
(0.239829 -0.00139456 0)
(0.24998 -0.00253258 0)
(0.266608 -0.0135882 0)
(0.103775 -0.0138865 0)
(0.138424 -0.0133013 0)
(0.17789 -0.0110522 0)
(0.210215 -0.00965774 0)
(0.237796 -0.00838522 0)
(0.261191 -0.00714128 0)
(0.280938 -0.00606501 0)
(0.297679 -0.0051749 0)
(0.311965 -0.00445445 0)
(0.32427 -0.00388546 0)
(0.335007 -0.00345792 0)
(0.34455 -0.00317643 0)
(0.353266 -0.00306929 0)
(0.361555 -0.00321064 0)
(0.36996 -0.00377646 0)
(0.379191 -0.00521723 0)
(0.390878 -0.00855041 0)
(0.404362 -0.0173888 0)
(0.149725 -0.0188143 0)
(0.178518 -0.0218283 0)
(0.22057 -0.0190086 0)
(0.254416 -0.0167791 0)
(0.283323 -0.0147537 0)
(0.308225 -0.0128627 0)
(0.329662 -0.0112155 0)
(0.348198 -0.00982918 0)
(0.36432 -0.0086878 0)
(0.378455 -0.00777206 0)
(0.390983 -0.00707303 0)
(0.40225 -0.00660177 0)
(0.412587 -0.00640257 0)
(0.422333 -0.00658222 0)
(0.431882 -0.00737279 0)
(0.441596 -0.00929973 0)
(0.451965 -0.0134012 0)
(0.461109 -0.0219256 0)
(0.19687 -0.0264365 0)
(0.219407 -0.0310727 0)
(0.258203 -0.0280103 0)
(0.290645 -0.0249111 0)
(0.318805 -0.022051 0)
(0.343348 -0.0194485 0)
(0.364727 -0.0171777 0)
(0.38342 -0.0152505 0)
(0.399841 -0.0136493 0)
(0.414364 -0.0123525 0)
(0.427327 -0.0113509 0)
(0.439038 -0.0106586 0)
(0.449782 -0.0103285 0)
(0.459831 -0.010481 0)
(0.469444 -0.0113562 0)
(0.478735 -0.013425 0)
(0.487621 -0.0174111 0)
(0.494354 -0.0242071 0)
(0.247101 -0.0314714 0)
(0.263477 -0.0394751 0)
(0.296369 -0.0371068 0)
(0.32579 -0.0334046 0)
(0.352054 -0.0297943 0)
(0.375279 -0.0265108 0)
(0.395741 -0.0236281 0)
(0.413801 -0.0211609 0)
(0.429792 -0.0190931 0)
(0.444027 -0.0174035 0)
(0.456794 -0.016083 0)
(0.468356 -0.015147 0)
(0.478953 -0.0146496 0)
(0.488788 -0.0147082 0)
(0.498016 -0.0155354 0)
(0.506606 -0.0174877 0)
(0.514284 -0.0209639 0)
(0.519666 -0.0261001 0)
(0.300667 -0.0340751 0)
(0.31117 -0.0463856 0)
(0.33703 -0.0454729 0)
(0.362349 -0.0416262 0)
(0.38587 -0.0374854 0)
(0.407094 -0.0336328 0)
(0.426049 -0.0302065 0)
(0.442951 -0.0272425 0)
(0.458036 -0.0247345 0)
(0.471548 -0.0226661 0)
(0.483719 -0.0210301 0)
(0.494766 -0.0198412 0)
(0.504875 -0.0191493 0)
(0.514193 -0.0190552 0)
(0.522796 -0.0197239 0)
(0.530586 -0.0213869 0)
(0.537271 -0.0241996 0)
(0.541829 -0.0279613 0)
(0.357417 -0.0347891 0)
(0.362513 -0.0515295 0)
(0.381028 -0.0526171 0)
(0.401501 -0.0491511 0)
(0.421596 -0.0447816 0)
(0.440252 -0.0405275 0)
(0.457215 -0.0366626 0)
(0.472532 -0.0332715 0)
(0.48633 -0.0303702 0)
(0.498773 -0.0279532 0)
(0.510036 -0.0260172 0)
(0.520282 -0.0245758 0)
(0.529647 -0.0236701 0)
(0.538228 -0.0233769 0)
(0.546047 -0.0238073 0)
(0.552985 -0.0250836 0)
(0.558805 -0.0272049 0)
(0.562777 -0.0298605 0)
(0.416918 -0.0339982 0)
(0.417257 -0.0547535 0)
(0.42866 -0.058208 0)
(0.443838 -0.0556286 0)
(0.459973 -0.0513797 0)
(0.475576 -0.0469377 0)
(0.490119 -0.0427724 0)
(0.50347 -0.0390488 0)
(0.515639 -0.0358201 0)
(0.52671 -0.0330991 0)
(0.536788 -0.0308904 0)
(0.545984 -0.0292066 0)
(0.554386 -0.0280778 0)
(0.562046 -0.0275546 0)
(0.568954 -0.0276974 0)
(0.574996 -0.0285455 0)
(0.580007 -0.0300111 0)
(0.58347 -0.031781 0)
(0.478504 -0.0320434 0)
(0.474968 -0.0560134 0)
(0.479871 -0.0619912 0)
(0.489588 -0.0607299 0)
(0.501387 -0.0569649 0)
(0.513535 -0.0525846 0)
(0.525278 -0.0482898 0)
(0.536318 -0.0443541 0)
(0.546546 -0.0408845 0)
(0.55596 -0.0379214 0)
(0.564598 -0.0354811 0)
(0.572514 -0.0335771 0)
(0.579752 -0.0322291 0)
(0.586328 -0.0314632 0)
(0.592212 -0.0312984 0)
(0.597305 -0.0317178 0)
(0.601509 -0.0325952 0)
(0.604444 -0.0336597 0)
(0.541364 -0.0292772 0)
(0.535033 -0.0553747 0)
(0.534301 -0.0638019 0)
(0.53867 -0.0641598 0)
(0.545939 -0.061218 0)
(0.554333 -0.0571671 0)
(0.56296 -0.0529398 0)
(0.571382 -0.0489374 0)
(0.579384 -0.0453352 0)
(0.586877 -0.0422096 0)
(0.593835 -0.0395946 0)
(0.600258 -0.0375077 0)
(0.606147 -0.0359606 0)
(0.611487 -0.0349597 0)
(0.616236 -0.0344944 0)
(0.620314 -0.0345148 0)
(0.62367 -0.0348877 0)
(0.626007 -0.0353957 0)
(0.604643 -0.0260199 0)
(0.59661 -0.0530249 0)
(0.591295 -0.0635776 0)
(0.590696 -0.0656863 0)
(0.593443 -0.0638412 0)
(0.59792 -0.0603789 0)
(0.603199 -0.0564291 0)
(0.608752 -0.0525241 0)
(0.614279 -0.0489165 0)
(0.619615 -0.0457265 0)
(0.624675 -0.0430109 0)
(0.629407 -0.040795 0)
(0.633775 -0.039087 0)
(0.637738 -0.0378803 0)
(0.641243 -0.0371462 0)
(0.644226 -0.0368203 0)
(0.646667 -0.0367795 0)
(0.648309 -0.0368573 0)
(0.662233 -0.0227846 0)
(0.653514 -0.0495897 0)
(0.64507 -0.0615831 0)
(0.640475 -0.0652351 0)
(0.639275 -0.0645459 0)
(0.640154 -0.0618185 0)
(0.642247 -0.0583045 0)
(0.645007 -0.0546435 0)
(0.648084 -0.0511579 0)
(0.651263 -0.0480116 0)
(0.65441 -0.0452855 0)
(0.657434 -0.0430161 0)
(0.660268 -0.0412125 0)
(0.66285 -0.0398629 0)
(0.66512 -0.0389312 0)
(0.667021 -0.038351 0)
(0.668546 -0.0380149 0)
(0.669453 -0.0378024 0)
(0.718103 -0.0195341 0)
(0.709388 -0.0452975 0)
(0.69879 -0.0581889 0)
(0.690829 -0.0631819 0)
(0.686026 -0.0636706 0)
(0.683455 -0.06179 0)
(0.682387 -0.0588427 0)
(0.682311 -0.0555504 0)
(0.682861 -0.0522974 0)
(0.68379 -0.0492891 0)
(0.684927 -0.0466319 0)
(0.686151 -0.0443757 0)
(0.687367 -0.0425345 0)
(0.688496 -0.041096 0)
(0.689471 -0.0400236 0)
(0.690238 -0.0392555 0)
(0.690789 -0.0387016 0)
(0.690893 -0.0382814 0)
(0.779249 -0.0160117 0)
(0.771112 -0.0395157 0)
(0.759196 -0.0526638 0)
(0.748288 -0.0587745 0)
(0.739945 -0.0605008 0)
(0.733758 -0.0596552 0)
(0.729222 -0.0574881 0)
(0.725935 -0.0547645 0)
(0.723564 -0.0519196 0)
(0.721853 -0.049198 0)
(0.720609 -0.0467335 0)
(0.719687 -0.0445927 0)
(0.718971 -0.0427989 0)
(0.718365 -0.041345 0)
(0.717794 -0.0401999 0)
(0.7172 -0.0393125 0)
(0.716564 -0.0386145 0)
(0.715671 -0.0380531 0)
(0.843499 -0.01239 0)
(0.836349 -0.0323086 0)
(0.824079 -0.0447163 0)
(0.811013 -0.0513814 0)
(0.79956 -0.0541521 0)
(0.789902 -0.0543962 0)
(0.781831 -0.0531783 0)
(0.775131 -0.0512298 0)
(0.769562 -0.0490011 0)
(0.764903 -0.0467606 0)
(0.760965 -0.0446638 0)
(0.757592 -0.0427939 0)
(0.754658 -0.0411863 0)
(0.752054 -0.0398439 0)
(0.749695 -0.0387464 0)
(0.747517 -0.0378574 0)
(0.745485 -0.0371313 0)
(0.743399 -0.036534 0)
(0.906624 -0.00876365 0)
(0.900588 -0.0239046 0)
(0.888796 -0.0342881 0)
(0.874591 -0.0405628 0)
(0.860846 -0.0438235 0)
(0.848275 -0.0449458 0)
(0.836988 -0.0446905 0)
(0.827001 -0.0436524 0)
(0.818233 -0.0422338 0)
(0.810544 -0.0406903 0)
(0.803783 -0.0391792 0)
(0.797811 -0.0377908 0)
(0.792502 -0.0365699 0)
(0.787746 -0.0355298 0)
(0.783449 -0.0346635 0)
(0.779539 -0.0339506 0)
(0.775963 -0.0333654 0)
(0.772545 -0.0328883 0)
(0.961089 -0.00511144 0)
(0.955986 -0.0145148 0)
(0.945104 -0.0215182 0)
(0.930695 -0.0261822 0)
(0.915683 -0.0290177 0)
(0.901138 -0.0304567 0)
(0.887423 -0.0309097 0)
(0.874766 -0.0307439 0)
(0.863262 -0.0302338 0)
(0.85289 -0.0295661 0)
(0.843569 -0.0288623 0)
(0.835197 -0.0281969 0)
(0.827667 -0.0276105 0)
(0.820877 -0.0271203 0)
(0.814734 -0.0267277 0)
(0.809157 -0.026425 0)
(0.80408 -0.0262012 0)
(0.799365 -0.0260475 0)
(0.994168 -0.00128694 0)
(0.98962 -0.00408684 0)
(0.979572 -0.00646077 0)
(0.965468 -0.00827015 0)
(0.950093 -0.00961809 0)
(0.934676 -0.010586 0)
(0.919712 -0.01126 0)
(0.90555 -0.011737 0)
(0.892408 -0.0120987 0)
(0.880361 -0.0124035 0)
(0.869392 -0.0126904 0)
(0.859441 -0.012984 0)
(0.850427 -0.0132972 0)
(0.84226 -0.013635 0)
(0.834855 -0.0139967 0)
(0.828129 -0.0143791 0)
(0.822008 -0.0147788 0)
(0.816407 -0.0151935 0)
(0.985587 0.00263513 0)
(0.981349 0.00734916 0)
(0.971522 0.0108255 0)
(0.957591 0.0130056 0)
(0.942392 0.0140872 0)
(0.927196 0.0143049 0)
(0.912485 0.0138867 0)
(0.898578 0.0130321 0)
(0.885679 0.0118964 0)
(0.873854 0.010593 0)
(0.863084 0.00920173 0)
(0.853307 0.00777773 0)
(0.844445 0.00635815 0)
(0.836412 0.0049675 0)
(0.829123 0.00362132 0)
(0.822497 0.00232841 0)
(0.81646 0.00109202 0)
(0.810985 -8.96827e-05 0)
(0.925887 0.00711187 0)
(0.919835 0.019544 0)
(0.90837 0.028281 0)
(0.893932 0.0334951 0)
(0.879459 0.0359855 0)
(0.865889 0.0364922 0)
(0.853395 0.0356488 0)
(0.842053 0.0339624 0)
(0.831862 0.0317952 0)
(0.822745 0.0293885 0)
(0.814593 0.0268984 0)
(0.807294 0.0244232 0)
(0.800744 0.0220226 0)
(0.794849 0.0197304 0)
(0.789526 0.017564 0)
(0.784702 0.0155295 0)
(0.780314 0.0136254 0)
(0.776374 0.0118432 0)
(0.844498 0.0121441 0)
(0.837103 0.031181 0)
(0.824908 0.042966 0)
(0.811495 0.0490189 0)
(0.799515 0.0511507 0)
(0.789297 0.0507261 0)
(0.780589 0.0487574 0)
(0.773172 0.0459484 0)
(0.766842 0.0427446 0)
(0.761401 0.0394146 0)
(0.756679 0.0361173 0)
(0.752543 0.0329428 0)
(0.748886 0.0299383 0)
(0.745625 0.027125 0)
(0.742693 0.024508 0)
(0.740036 0.0220831 0)
(0.73761 0.0198402 0)
(0.735453 0.0177629 0)
(0.748267 0.0176467 0)
(0.739699 0.0419156 0)
(0.728478 0.0546084 0)
(0.718446 0.0597198 0)
(0.711148 0.0603278 0)
(0.706052 0.058376 0)
(0.702471 0.0551054 0)
(0.69995 0.05126 0)
(0.698163 0.0472542 0)
(0.696872 0.0433109 0)
(0.695908 0.0395465 0)
(0.69516 0.0360167 0)
(0.69455 0.0327421 0)
(0.694027 0.0297234 0)
(0.693557 0.0269505 0)
(0.693115 0.0244081 0)
(0.692683 0.0220782 0)
(0.692323 0.0199391 0)
(0.645447 0.0234761 0)
(0.636882 0.0505529 0)
(0.629257 0.0617882 0)
(0.625129 0.0646223 0)
(0.624274 0.0632002 0)
(0.625377 0.0597339 0)
(0.627499 0.0554387 0)
(0.630107 0.0509387 0)
(0.63288 0.0465357 0)
(0.635626 0.0423702 0)
(0.638234 0.0385014 0)
(0.640649 0.0349458 0)
(0.642845 0.0316971 0)
(0.644816 0.0287379 0)
(0.646569 0.0260458 0)
(0.648112 0.0235968 0)
(0.649458 0.021368 0)
(0.650685 0.0193342 0)
(0.541937 0.0289935 0)
(0.535569 0.0556353 0)
(0.534505 0.0635867 0)
(0.538234 0.063685 0)
(0.544687 0.0604589 0)
(0.552197 0.0559738 0)
(0.559858 0.0511915 0)
(0.567232 0.0465282 0)
(0.574113 0.0421542 0)
(0.580411 0.0381307 0)
(0.586108 0.0344679 0)
(0.591218 0.0311517 0)
(0.595777 0.0281568 0)
(0.599829 0.025454 0)
(0.60342 0.0230136 0)
(0.606595 0.0208073 0)
(0.609393 0.0188106 0)
(0.611908 0.0169985 0)
(0.442179 0.0331259 0)
(0.440638 0.0560621 0)
(0.448666 0.0599763 0)
(0.461158 0.0577572 0)
(0.474798 0.0534535 0)
(0.488184 0.0486445 0)
(0.500696 0.0439403 0)
(0.512113 0.0395562 0)
(0.522395 0.035559 0)
(0.531582 0.031954 0)
(0.539749 0.02872 0)
(0.546988 0.025825 0)
(0.553392 0.0232339 0)
(0.559051 0.0209126 0)
(0.56405 0.0188291 0)
(0.568463 0.0169547 0)
(0.572355 0.0152657 0)
(0.575833 0.0137403 0)
(0.349583 0.0345463 0)
(0.354984 0.051477 0)
(0.373649 0.0517483 0)
(0.394647 0.0482004 0)
(0.414559 0.04372 0)
(0.432807 0.039244 0)
(0.449201 0.0350711 0)
(0.463771 0.0312882 0)
(0.476652 0.0279044 0)
(0.488002 0.0248961 0)
(0.497988 0.0222273 0)
(0.506766 0.0198593 0)
(0.514483 0.0177554 0)
(0.521269 0.0158817 0)
(0.527238 0.0142084 0)
(0.532493 0.0127087 0)
(0.537118 0.0113618 0)
(0.541231 0.0101515 0)
(0.2664 0.0318455 0)
(0.279975 0.0423208 0)
(0.309234 0.0403515 0)
(0.337382 0.0366117 0)
(0.362135 0.0327399 0)
(0.383987 0.0290671 0)
(0.403174 0.0257136 0)
(0.419947 0.0227221 0)
(0.434582 0.0200817 0)
(0.447345 0.0177596 0)
(0.458475 0.0157179 0)
(0.468188 0.0139198 0)
(0.47667 0.0123321 0)
(0.484086 0.0109256 0)
(0.490576 0.00967495 0)
(0.496261 0.0085576 0)
(0.501242 0.00755557 0)
(0.505647 0.00665907 0)
(0.193285 0.0245364 0)
(0.21588 0.0301782 0)
(0.253075 0.027893 0)
(0.285965 0.0248481 0)
(0.313797 0.0220254 0)
(0.337829 0.0193555 0)
(0.358598 0.016917 0)
(0.376506 0.0147635 0)
(0.391941 0.0128841 0)
(0.405253 0.0112475 0)
(0.416746 0.0098207 0)
(0.42668 0.00857359 0)
(0.435277 0.0074796 0)
(0.442726 0.00651611 0)
(0.449185 0.00566381 0)
(0.454792 0.00490491 0)
(0.459654 0.00422348 0)
(0.463912 0.00361484 0)
(0.127715 0.0185958 0)
(0.160624 0.0184904 0)
(0.198654 0.0167651 0)
(0.232492 0.0146848 0)
(0.261076 0.0128872 0)
(0.285339 0.0111268 0)
(0.305938 0.00950629 0)
(0.323375 0.00809883 0)
(0.338125 0.0068944 0)
(0.350612 0.00586394 0)
(0.361193 0.00498001 0)
(0.370165 0.00421889 0)
(0.377775 0.00356042 0)
(0.38423 0.002988 0)
(0.389701 0.0024879 0)
(0.394334 0.00204723 0)
(0.398238 0.00165079 0)
(0.401556 0.0012977 0)
(0.0432988 0.0444517 0)
(0.0990437 0.0110888 0)
(0.124676 0.00784207 0)
(0.151875 0.00651675 0)
(0.175847 0.0055052 0)
(0.195537 0.00453595 0)
(0.211543 0.00365906 0)
(0.224457 0.00292623 0)
(0.234828 0.00232612 0)
(0.243135 0.00183371 0)
(0.249762 0.00142805 0)
(0.255017 0.00109248 0)
(0.25915 0.000813453 0)
(0.262361 0.000580336 0)
(0.264814 0.000384494 0)
(0.266643 0.000218913 0)
(0.267936 7.42543e-05 0)
(0.268817 -5.64041e-05 0)
(0.000640812 -0.00144229 -4.0285e-22)
(0.00261196 -0.00255118 5.4322e-22)
(0.00484342 -0.00272009 -4.18961e-22)
(0.00675201 -0.00228398 -1.42456e-22)
(0.00785896 -0.00154001 2.33678e-22)
(0.00807474 -0.000731086 -5.92694e-23)
(0.00746635 -1.44501e-05 -5.75589e-23)
(0.00618809 0.000548729 2.69282e-22)
(0.00437344 0.000962027 -1.61016e-22)
(0.00212946 0.00125434 5.80888e-23)
(-0.000473901 0.00145628 2.53205e-23)
(-0.00340499 0.0016117 -3.31227e-22)
(-0.00666373 0.00177496 5.2676e-22)
(-0.0102747 0.00198452 5.88953e-22)
(-0.0142749 0.00225859 5.37779e-23)
(-0.0187029 0.00260144 2.34353e-22)
(-0.02359 0.00300867 9.32753e-23)
(-0.0289548 0.00347136 1.60641e-22)
(-0.0348011 0.00397798 2.34565e-22)
(-0.041119 0.00451467 2.45455e-23)
(-0.0478812 0.00506075 -7.92517e-23)
(-0.0550468 0.00559367 6.24341e-22)
(-0.0625613 0.00609173 -7.55992e-23)
(-0.0703597 0.00653608 5.81457e-22)
(-0.0783693 0.00691149 -1.14379e-22)
(-0.0865133 0.00720715 4.11495e-22)
(-0.0947134 0.00741637 1.95426e-22)
(-0.102893 0.0075364 1.19246e-22)
(-0.110977 0.00756816 -4.42729e-22)
(-0.118897 0.00751622 -7.45086e-23)
(-0.126591 0.0073872 -4.73175e-22)
(-0.134003 0.00718867 2.72776e-22)
(-0.141084 0.00692911 1.90522e-22)
(-0.147793 0.00661735 -2.26947e-22)
(-0.154096 0.0062618 -3.29028e-22)
(-0.159964 0.0058702 -2.07219e-23)
(-0.165377 0.00544947 1.09555e-22)
(-0.170316 0.00500536 2.50199e-22)
(-0.174769 0.00454249 1.60634e-22)
(-0.178725 0.00406391 3.37115e-22)
(-0.182177 0.00357145 1.18874e-22)
(-0.185117 0.00306613 2.72279e-23)
(-0.187544 0.0025501 -3.05999e-22)
(-0.189459 0.00202861 -5.04197e-23)
(-0.190864 0.00151221 7.62333e-23)
(-0.191757 0.00101576 2.40733e-24)
(-0.192132 0.000556143 3.69639e-23)
(-0.191988 0.000149348 -1.37129e-23)
(-0.191432 -0.000210187 -1.65645e-23)
(-0.190468 -0.000541465 2.31308e-22)
(-0.189122 -0.000852715 -2.703e-22)
(-0.187411 -0.00114821 -3.27168e-23)
(-0.18535 -0.00142961 -5.7754e-22)
(-0.182954 -0.00169856 -5.5714e-22)
(-0.180235 -0.00195236 -2.59826e-22)
(-0.177209 -0.00219774 -7.15395e-22)
(-0.173887 -0.0024338 -1.12852e-21)
(-0.170284 -0.0026517 1.42691e-21)
(-0.166415 -0.00285846 -6.54116e-22)
(-0.162294 -0.00305522 -8.47298e-22)
(-0.157936 -0.00323995 2.29576e-21)
(-0.153355 -0.00341347 1.69189e-21)
(-0.148565 -0.00357562 -1.47739e-21)
(-0.143582 -0.00372692 -1.97396e-21)
(-0.13842 -0.00386754 -6.14692e-22)
(-0.133094 -0.00399759 2.61427e-21)
(-0.127617 -0.00411681 -3.17114e-22)
(-0.122004 -0.00422503 -1.64989e-22)
(-0.116271 -0.00432289 -9.02271e-22)
(-0.110432 -0.0044112 -4.81402e-21)
(-0.104501 -0.00449004 2.61112e-22)
(-0.0984917 -0.00455981 4.11871e-21)
(-0.0924174 -0.00462081 -4.80997e-21)
(-0.086291 -0.00467327 -1.89639e-21)
(-0.0801254 -0.00471759 3.31405e-21)
(-0.0739328 -0.00475394 -2.97057e-21)
(-0.0677253 -0.00478279 4.92441e-22)
(-0.061515 -0.00480436 -6.63888e-21)
(-0.0553134 -0.0048191 -3.28752e-21)
(-0.0491313 -0.00482701 5.21452e-21)
(-0.0429791 -0.00482853 1.59882e-21)
(-0.0368672 -0.00482387 -3.39367e-22)
(-0.0308055 -0.00481361 -7.22917e-21)
(-0.0248025 -0.00479818 -9.61925e-21)
(-0.0188658 -0.00477821 -9.0736e-21)
(-0.013003 -0.00475298 9.867e-21)
(-0.00722621 -0.00471271 -2.24954e-20)
(-0.00154976 -0.00462981 9.42842e-22)
(0.00402454 -0.00448167 -1.72351e-20)
(0.0094981 -0.00429285 2.41107e-20)
(0.0148602 -0.00409675 1.27918e-20)
(0.0201015 -0.00390382 -1.06526e-20)
(0.0252171 -0.00371681 -1.53656e-20)
(0.0302041 -0.00353634 2.3151e-21)
(0.0350607 -0.00336254 1.42615e-20)
(0.039786 -0.00319479 1.40984e-20)
(0.0443791 -0.00303275 -1.44127e-20)
(0.0488394 -0.00287641 7.74634e-21)
(0.0531661 -0.00272557 1.84532e-20)
(0.0573588 -0.00257978 8.03894e-21)
(0.0614173 -0.00243908 -1.98563e-20)
(0.0653417 -0.00230323 -9.99471e-21)
(0.0691321 -0.00217213 -1.49933e-20)
(0.0727888 -0.00204541 9.21186e-21)
(0.076312 -0.00192334 -2.95213e-21)
(0.0797021 -0.00180562 -1.03305e-21)
(0.0829596 -0.00169247 1.91022e-21)
(0.0860857 -0.00158355 4.17924e-21)
(0.0890816 -0.00147906 6.34567e-21)
(0.0919488 -0.00137865 1.0451e-20)
(0.0946891 -0.00128249 1.45144e-20)
(0.0973042 -0.00119024 -7.79969e-21)
(0.0997962 -0.00110206 1.10668e-20)
(0.102167 -0.00101764 1.10217e-20)
(0.104419 -0.000937117 -1.98098e-20)
(0.106554 -0.000860199 1.19595e-21)
(0.108575 -0.000786991 1.32952e-20)
(0.110484 -0.000717202 1.42211e-20)
(0.112283 -0.000650909 -1.35022e-20)
(0.113976 -0.000587888 -1.0417e-21)
(0.115564 -0.000528166 -4.32631e-21)
(0.117051 -0.000471501 2.93923e-21)
(0.118439 -0.000417927 8.94423e-21)
(0.119732 -0.000367212 -7.90449e-21)
(0.120931 -0.000319464 7.32339e-21)
(0.122039 -0.000274453 -6.98095e-21)
(0.123059 -0.000232222 -1.00187e-20)
(0.123993 -0.00019255 3.78901e-21)
(0.124845 -0.000155505 -1.12566e-20)
(0.125618 -0.000120879 1.0688e-20)
(0.126315 -8.87186e-05 -2.80295e-20)
(0.126938 -5.87886e-05 2.67308e-21)
(0.127491 -3.1072e-05 3.6041e-20)
(0.127976 -5.33829e-06 -9.61726e-21)
(0.128396 1.84277e-05 2.64122e-21)
(0.128754 4.04943e-05 -1.56918e-20)
(0.129051 6.10726e-05 -2.29483e-20)
(0.129291 8.11493e-05 2.20752e-20)
(0.129471 0.000101118 9.33282e-21)
(0.129592 0.000119703 -2.10781e-21)
(0.129658 0.00013552 3.63718e-20)
(0.129677 0.000148592 2.92682e-20)
(0.129651 0.000159421 -1.41387e-20)
(0.129585 0.000168524 -1.37203e-20)
(0.129481 0.000176206 -2.21926e-20)
(0.129343 0.000182697 -2.93676e-20)
(0.129171 0.000188162 -2.02158e-20)
(0.128968 0.000192738 -3.00013e-20)
(0.128737 0.000196475 1.36501e-20)
(0.128479 0.000199452 1.17277e-20)
(0.128196 0.000201705 1.87408e-20)
(0.12789 0.000203296 1.29287e-20)
(0.127562 0.000204291 3.41886e-20)
(0.127214 0.000204778 2.15791e-21)
(0.126847 0.000204821 1.29229e-21)
(0.126462 0.000204509 -2.10776e-20)
(0.126061 0.000203924 3.12638e-20)
(0.125645 0.000203159 -1.74315e-20)
(0.125213 0.000202271 2.27649e-21)
(0.124766 0.000201349 7.741e-21)
(0.124305 0.000200482 2.65679e-21)
(0.123829 0.000199768 6.36537e-21)
(0.123336 0.000199321 2.83544e-20)
(0.122827 0.000199312 1.31489e-20)
(0.122299 0.00019995 5.83993e-21)
(0.121749 0.000201509 7.77791e-21)
(0.121173 0.000204315 2.06479e-20)
(0.120565 0.000208789 -8.49363e-22)
(0.119917 0.000215526 2.10195e-20)
(0.119219 0.000225339 2.84903e-20)
(0.118454 0.000239334 2.60254e-20)
(0.117603 0.000259034 -8.89256e-22)
(0.116637 0.000286707 2.15977e-21)
(0.115514 0.000326252 -4.7892e-21)
(0.114178 0.000381959 -5.63145e-20)
(0.112517 0.000467958 2.61404e-20)
(0.110498 0.000584017 1.80737e-20)
(0.107436 0.000833113 -3.46269e-20)
(0.104681 0.0010677 -3.30119e-20)
(0.0947541 0.00203598 4.92066e-20)
(0.000616538 -0.00494935 1.08057e-21)
(0.00228698 -0.00749736 -1.03811e-21)
(0.00322076 -0.00641703 -3.53048e-22)
(0.00307625 -0.00383188 7.99014e-22)
(0.00190442 -0.000891473 1.56521e-22)
(-0.000186957 0.00189813 1.0154e-22)
(-0.00309557 0.00431291 -9.37599e-23)
(-0.00675587 0.00630253 -4.80912e-22)
(-0.0111008 0.00792442 -2.83377e-23)
(-0.0160801 0.0092808 -4.96669e-22)
(-0.0216569 0.0104756 2.87509e-23)
(-0.0278035 0.0115954 2.97218e-24)
(-0.0344935 0.0127077 1.79274e-22)
(-0.0416973 0.0138544 8.07865e-24)
(-0.0493791 0.0150451 -6.76622e-23)
(-0.0574925 0.0162629 -5.63324e-22)
(-0.0659795 0.0174735 -1.22559e-22)
(-0.0747714 0.0186327 5.1097e-22)
(-0.0837894 0.0196923 -6.01886e-22)
(-0.092943 0.020611 1.64736e-22)
(-0.102137 0.0213583 1.67099e-23)
(-0.11128 0.0219108 3.04471e-22)
(-0.120284 0.0222538 3.65385e-22)
(-0.129069 0.0223816 2.98578e-22)
(-0.137565 0.0222967 3.94812e-22)
(-0.145711 0.0220082 -2.23722e-22)
(-0.153458 0.0215312 5.31451e-23)
(-0.160764 0.0208851 6.66634e-23)
(-0.167602 0.0200911 -2.51592e-22)
(-0.17395 0.0191713 -1.72691e-22)
(-0.179797 0.018148 -2.76362e-22)
(-0.185135 0.0170429 -8.31195e-23)
(-0.189964 0.0158759 -6.18193e-22)
(-0.194288 0.0146647 2.49193e-22)
(-0.198113 0.0134252 -3.54002e-22)
(-0.201447 0.0121706 4.0728e-22)
(-0.204303 0.0109119 -3.74006e-22)
(-0.206691 0.00965822 1.02514e-22)
(-0.208625 0.0084168 2.40553e-22)
(-0.210119 0.00719325 -1.6756e-22)
(-0.211186 0.00599205 1.35826e-22)
(-0.211841 0.00481613 -4.83309e-23)
(-0.2121 0.00366773 -1.77545e-22)
(-0.211979 0.00254849 -4.17383e-22)
(-0.211496 0.00146178 -2.31673e-22)
(-0.210671 0.000414859 2.32685e-24)
(-0.209536 -0.000579779 -1.11297e-22)
(-0.208114 -0.00150804 -3.25266e-24)
(-0.206352 -0.00237107 -6.90862e-23)
(-0.204253 -0.00318106 -2.91233e-22)
(-0.20182 -0.00394438 -9.05592e-23)
(-0.199058 -0.0046654 6.71508e-23)
(-0.195978 -0.00534633 1.13916e-22)
(-0.192591 -0.00598868 3.8565e-22)
(-0.188906 -0.00659308 3.50889e-22)
(-0.184936 -0.00716033 1.08859e-21)
(-0.180693 -0.00769049 1.4971e-21)
(-0.17619 -0.00818409 3.42258e-22)
(-0.171438 -0.00864163 -2.71005e-22)
(-0.166452 -0.00906351 1.65677e-21)
(-0.161243 -0.00944998 -1.44894e-21)
(-0.155827 -0.00980176 6.35907e-22)
(-0.150216 -0.0101195 2.97778e-21)
(-0.144424 -0.0104044 -2.15266e-22)
(-0.138465 -0.0106571 -2.55069e-21)
(-0.132352 -0.0108785 1.03234e-21)
(-0.1261 -0.0110691 -1.23873e-22)
(-0.11972 -0.0112295 2.90341e-21)
(-0.113227 -0.0113598 -1.0638e-21)
(-0.106635 -0.0114616 2.02268e-21)
(-0.0999554 -0.0115366 -4.05053e-23)
(-0.0932027 -0.0115859 2.73058e-21)
(-0.0863892 -0.0116105 -4.86595e-23)
(-0.0795272 -0.0116115 1.87694e-21)
(-0.0726289 -0.0115901 -2.64033e-21)
(-0.0657062 -0.0115472 4.79446e-21)
(-0.0587705 -0.0114842 -6.60051e-22)
(-0.0518332 -0.0114022 5.42006e-21)
(-0.0449053 -0.0113023 -2.00071e-22)
(-0.0379972 -0.0111856 -4.73294e-21)
(-0.031119 -0.0110532 -9.78636e-22)
(-0.0242804 -0.0109061 3.04193e-21)
(-0.0174908 -0.0107457 4.80718e-21)
(-0.0107588 -0.010573 -2.81281e-21)
(-0.00409346 -0.0103896 -8.39815e-21)
(0.00250014 -0.0101957 2.71286e-21)
(0.00901838 -0.00999209 1.86716e-22)
(0.0154559 -0.00977511 2.38119e-22)
(0.0218037 -0.00953329 -5.86667e-21)
(0.0280506 -0.00926668 -2.14082e-20)
(0.0341951 -0.00898771 -4.80743e-21)
(0.0402379 -0.0087047 -9.11379e-21)
(0.0461749 -0.00842186 2.04188e-20)
(0.0520019 -0.00814112 1.00342e-20)
(0.0577152 -0.00786338 -6.75267e-21)
(0.0633121 -0.00758897 -1.40264e-20)
(0.0687905 -0.00731801 7.9287e-21)
(0.0741483 -0.00705063 3.25659e-21)
(0.079384 -0.00678704 5.73775e-21)
(0.0844965 -0.00652739 -8.6737e-21)
(0.0894849 -0.00627188 1.23832e-20)
(0.0943483 -0.00602072 9.5344e-21)
(0.0990863 -0.00577413 6.3369e-21)
(0.103699 -0.00553218 -2.13626e-20)
(0.108185 -0.00529513 2.48201e-21)
(0.112546 -0.00506306 -1.58449e-21)
(0.11678 -0.0048363 -8.51255e-21)
(0.120889 -0.00461486 -1.88673e-20)
(0.124874 -0.00439902 2.63003e-21)
(0.128734 -0.00418869 7.641e-21)
(0.132472 -0.00398411 -6.74005e-22)
(0.136088 -0.00378518 1.51138e-20)
(0.139584 -0.00359208 -1.69288e-20)
(0.142961 -0.00340469 -6.57884e-21)
(0.146221 -0.00322316 -5.25919e-21)
(0.149365 -0.00304733 -1.37112e-20)
(0.152395 -0.00287729 -1.71273e-20)
(0.155312 -0.0027129 9.21743e-21)
(0.158119 -0.00255423 -6.20855e-21)
(0.160816 -0.00240113 -9.42834e-21)
(0.163408 -0.00225362 -1.18823e-20)
(0.165895 -0.00211155 1.4172e-21)
(0.168279 -0.00197494 5.38765e-22)
(0.170564 -0.00184359 1.12044e-20)
(0.172749 -0.00171761 1.08453e-20)
(0.174838 -0.00159679 1.23918e-20)
(0.176832 -0.00148117 -1.27993e-20)
(0.178734 -0.00137055 1.91493e-21)
(0.180546 -0.00126498 8.79699e-21)
(0.182271 -0.00116423 1.85895e-21)
(0.18391 -0.00106833 1.2043e-20)
(0.185465 -0.000977061 1.647e-20)
(0.18694 -0.000890336 8.62202e-21)
(0.188335 -0.000807898 -5.0432e-21)
(0.189655 -0.000729666 -4.49276e-21)
(0.190899 -0.000655307 -4.98039e-21)
(0.192071 -0.00058457 6.90309e-21)
(0.193173 -0.000516841 -3.84844e-20)
(0.19421 -0.000451697 5.3625e-22)
(0.195185 -0.000389812 2.39251e-20)
(0.196099 -0.000332338 -1.30812e-20)
(0.196951 -0.000279407 1.62353e-20)
(0.197745 -0.000230673 6.27655e-21)
(0.19848 -0.000185681 -1.18462e-20)
(0.199161 -0.00014399 -3.62733e-21)
(0.199787 -0.000105213 -1.62312e-20)
(0.200362 -6.92139e-05 -9.3478e-21)
(0.200886 -3.59301e-05 1.8319e-20)
(0.201363 -5.22808e-06 2.80625e-20)
(0.201794 2.30975e-05 -3.6014e-20)
(0.202182 4.91923e-05 1.05169e-20)
(0.202528 7.32039e-05 2.01212e-21)
(0.202833 9.52823e-05 -5.15745e-20)
(0.203099 0.000115589 1.22086e-21)
(0.203328 0.000134276 7.3301e-22)
(0.203521 0.000151534 -1.46564e-20)
(0.203679 0.000167578 1.78218e-20)
(0.203804 0.000182636 2.38888e-20)
(0.203895 0.000196897 2.40122e-20)
(0.203955 0.000210566 2.0597e-20)
(0.203983 0.000223899 -2.95441e-20)
(0.203979 0.000237249 3.6706e-21)
(0.203943 0.000251028 -7.5276e-21)
(0.203874 0.000265768 2.00418e-20)
(0.20377 0.000282105 -5.90977e-21)
(0.203628 0.000300834 2.34959e-20)
(0.203444 0.000322985 -2.28288e-20)
(0.203213 0.00034994 -3.48378e-20)
(0.202928 0.000383491 -5.22026e-20)
(0.202576 0.000426104 -2.41988e-20)
(0.202144 0.000481164 -1.07584e-20)
(0.201612 0.000553419 5.12658e-21)
(0.20095 0.000649793 3.09942e-21)
(0.20012 0.000780114 -3.57045e-20)
(0.199067 0.000960956 -3.31484e-20)
(0.197692 0.00121734 4.55337e-20)
(0.195948 0.00159515 5.55071e-20)
(0.193293 0.00218744 5.1868e-20)
(0.19082 0.00312835 2.59852e-20)
(0.182953 0.00488574 -5.53649e-20)
(0.000317894 -0.00686079 1.84644e-23)
(-5.16181e-06 -0.00793761 1.23351e-21)
(-0.00164118 -0.00423442 9.64025e-22)
(-0.00428115 0.000510366 -6.96875e-22)
(-0.00768179 0.00514137 1.55728e-22)
(-0.0117448 0.00935617 -1.06213e-22)
(-0.0164203 0.0130728 -4.9739e-23)
(-0.0216884 0.016299 4.89523e-22)
(-0.0275374 0.0191002 4.23197e-22)
(-0.0339497 0.0215722 3.94195e-22)
(-0.0408957 0.0238117 1.79032e-22)
(-0.0483304 0.0258935 1.85619e-22)
(-0.0561923 0.0278597 -6.10863e-22)
(-0.064405 0.0297209 -3.90148e-22)
(-0.0728789 0.0314615 1.40459e-22)
(-0.0815168 0.0330472 -2.9124e-22)
(-0.0902189 0.0344354 3.02005e-22)
(-0.0988875 0.0355832 3.21491e-23)
(-0.107431 0.036454 4.52773e-22)
(-0.11577 0.0370206 3.8917e-22)
(-0.123838 0.037269 -3.70037e-22)
(-0.131582 0.0371983 -9.87505e-22)
(-0.138958 0.0368181 -1.73739e-22)
(-0.145937 0.0361466 -1.08868e-21)
(-0.152502 0.0352087 2.38724e-22)
(-0.158641 0.0340336 3.57716e-22)
(-0.164351 0.0326532 -1.36606e-22)
(-0.169637 0.0311005 4.6044e-22)
(-0.174503 0.0294082 2.3171e-22)
(-0.178958 0.0276067 5.04076e-22)
(-0.183011 0.0257244 -2.51451e-22)
(-0.186671 0.0237867 -1.48762e-22)
(-0.189948 0.0218159 6.57632e-23)
(-0.19285 0.0198309 -8.55909e-23)
(-0.195383 0.0178476 -1.35439e-22)
(-0.197556 0.0158792 -1.80601e-24)
(-0.199372 0.0139361 -4.44048e-22)
(-0.200839 0.0120267 1.57146e-22)
(-0.20196 0.0101578 -3.53933e-22)
(-0.20274 0.00833456 -1.11365e-22)
(-0.203185 0.00656142 9.25256e-23)
(-0.203299 0.00484197 -7.64134e-23)
(-0.203089 0.00317966 -1.47262e-22)
(-0.20256 0.00157785 2.90051e-22)
(-0.201717 4.03632e-05 2.74031e-22)
(-0.200565 -0.00142963 -1.46369e-22)
(-0.199101 -0.00283269 2.99513e-23)
(-0.197324 -0.00417498 -2.66117e-23)
(-0.195233 -0.0054592 4.38243e-23)
(-0.192833 -0.00668393 6.81476e-23)
(-0.190127 -0.00784888 9.461e-23)
(-0.187123 -0.00895428 -2.0392e-22)
(-0.183826 -0.0100003 -3.47064e-23)
(-0.180245 -0.0109874 -2.77466e-22)
(-0.17639 -0.0119156 -5.10516e-23)
(-0.17227 -0.0127855 -9.1166e-23)
(-0.167896 -0.013597 -3.13663e-22)
(-0.163278 -0.0143505 -5.29971e-22)
(-0.158428 -0.0150465 1.17403e-22)
(-0.153357 -0.0156855 -2.12505e-21)
(-0.148077 -0.0162682 -1.68027e-21)
(-0.1426 -0.0167951 -4.82688e-22)
(-0.136939 -0.0172674 -1.1591e-21)
(-0.131106 -0.0176862 2.83761e-21)
(-0.125115 -0.0180532 -3.85215e-22)
(-0.118977 -0.0183697 -2.00293e-21)
(-0.112705 -0.0186368 3.41286e-21)
(-0.106313 -0.0188557 1.61168e-21)
(-0.0998112 -0.0190276 -1.18231e-21)
(-0.0932132 -0.0191536 -1.02075e-21)
(-0.0865311 -0.0192361 2.31568e-21)
(-0.0797773 -0.019277 -4.34995e-21)
(-0.0729638 -0.0192783 -5.01431e-22)
(-0.0661023 -0.0192416 -1.76583e-21)
(-0.0592043 -0.0191687 6.10591e-21)
(-0.0522809 -0.0190616 -6.29164e-21)
(-0.0453431 -0.0189222 -1.3785e-21)
(-0.0384015 -0.0187522 2.97453e-21)
(-0.0314663 -0.0185538 5.80148e-21)
(-0.0245473 -0.0183287 3.05683e-21)
(-0.0176539 -0.0180787 -5.03979e-22)
(-0.0107951 -0.0178058 -1.47153e-21)
(-0.00397928 -0.0175122 6.84436e-22)
(0.00278636 -0.0171996 5.58943e-21)
(0.00949416 -0.0168704 1.67599e-21)
(0.0161363 -0.0165263 1.73386e-21)
(0.0227065 -0.0161696 -1.04892e-21)
(0.0292005 -0.0158032 3.93739e-21)
(0.0356149 -0.0154292 5.93104e-21)
(0.0419463 -0.0150461 7.5554e-21)
(0.0481925 -0.0146539 -2.46813e-21)
(0.0543502 -0.0142556 9.4616e-21)
(0.0604145 -0.0138536 -9.53328e-21)
(0.0663803 -0.0134502 -9.25017e-22)
(0.0722434 -0.0130467 2.38666e-21)
(0.0780001 -0.0126443 4.62667e-21)
(0.0836475 -0.0122436 -1.64825e-21)
(0.0891833 -0.0118455 -8.1354e-21)