/*--------------------------------*- C++ -*----------------------------------*\
| =========                 |                                                 |
| \\      /  F ield         | OpenFOAM: The Open Source CFD Toolbox           |
|  \\    /   O peration     | Version:  2112                                  |
|   \\  /    A nd           | Website:  www.openfoam.com                      |
|    \\/     M anipulation  |                                                 |
\*---------------------------------------------------------------------------*/
FoamFile
{
    version     2.0;
    format      ascii;
    arch        "LSB;label=32;scalar=64";
    class       volScalarField;
    location    "237";
    object      epsilon;
}
// * * * * * * * * * * * * * * * * * * * * * * * * * * * * * * * * * * * * * //

dimensions      [0 2 -3 0 0 0 0];

internalField   nonuniform List<scalar> 
12225
(
214.005
68.5322
54.4506
48.8333
45.6587
43.4824
41.8236
40.4818
39.3555
38.3895
37.5541
36.8354
36.2331
35.7608
35.4535
35.46
35.8566
37.0381
58.3698
31.2051
23.7426
20.6722
18.8535
17.5798
16.604
15.8166
15.1599
14.6
14.1158
13.6938
13.3252
13.0048
12.7274
12.5061
12.3175
12.0992
31.1054
22.3894
17.3728
14.8987
13.3536
12.2495
11.3972
10.7082
10.134
9.6453
9.22291
8.85367
8.52788
8.23803
7.9758
7.73741
7.50081
7.2559
22.0892
18.4966
14.8993
12.776
11.3671
10.3369
9.53479
8.88419
8.34164
7.8801
7.4815
7.13306
6.82513
6.54997
6.29978
6.06847
5.8426
5.62443
18.1131
16.3048
13.6197
11.7654
10.4537
9.46756
8.69002
8.05571
7.52542
7.07395
6.68406
6.34333
6.04226
5.7732
5.52907
5.3039
5.08966
4.88733
16.1121
14.9413
12.8566
11.226
9.99703
9.04407
8.28065
7.65252
7.12502
6.67486
6.28569
5.94549
5.64496
5.37663
5.134
4.91166
4.70434
4.51169
15.0519
14.0547
12.3672
10.9234
9.77109
8.84834
8.09542
7.46919
6.93989
6.4865
6.09366
5.7499
5.44617
5.17524
4.93106
4.70875
4.50437
4.31676
14.4997
13.4571
12.0432
10.7525
9.67193
8.77941
8.03639
7.41101
6.87844
6.42
6.02155
5.67206
5.36304
5.08754
4.8399
4.61563
4.41135
4.22536
14.2054
13.084
11.83
10.6589
9.64342
8.7806
8.0492
7.42571
6.89012
6.42633
6.02161
5.66582
5.35082
5.07
4.81798
4.59058
4.38459
4.19791
14.0572
12.8572
11.6928
10.611
9.65217
8.81996
8.10229
7.48273
6.94563
6.47746
6.067
5.70501
5.3839
5.09746
4.8406
4.6093
4.40043
4.21154
13.9904
12.7252
11.607
10.5886
9.6777
8.87514
8.17309
7.55995
7.02361
6.55291
6.13812
5.77097
5.44451
5.15293
4.89144
4.65615
4.4439
4.25206
13.9688
12.6589
11.5588
10.5791
9.70352
8.92608
8.23943
7.63437
7.10111
6.63026
6.21337
5.84304
5.51291
5.21756
4.95247
4.71388
4.49862
4.30395
13.9655
12.6226
11.5272
10.5726
9.72445
8.96932
8.29813
7.70258
7.17431
6.70527
6.28812
5.91624
5.58381
5.28583
5.01803
4.77676
4.5589
4.36167
13.9733
12.6052
11.5042
10.5639
9.73706
9.00291
8.3487
7.76514
7.24462
6.78006
6.36502
5.9936
5.66054
5.36124
5.09172
4.8485
4.62854
4.42909
13.9874
12.6022
11.4878
10.5501
9.73613
9.01801
8.37935
7.80928
7.29931
6.84239
6.43248
6.06427
5.733
5.43447
5.16498
4.92122
4.70029
4.49954
14.0027
12.6088
11.4772
10.5314
9.71989
9.01091
8.3842
7.82613
7.32707
6.87967
6.4776
6.11553
5.78892
5.49378
5.22658
4.98424
4.76403
4.56347
14.0155
12.6195
11.4725
10.5135
9.69593
8.98787
8.36703
7.81756
7.32798
6.88965
6.49583
6.14099
5.82048
5.53035
5.26716
5.02792
4.81002
4.61111
14.0231
12.6285
11.4733
10.5046
9.68035
8.96959
8.34968
7.80375
7.31923
6.88659
6.49847
6.14894
5.83315
5.54705
5.2872
5.05066
4.83488
4.6376
14.022
12.6286
11.4764
10.5111
9.68936
8.98015
8.36087
7.8149
7.32993
6.89662
6.50767
6.15725
5.84058
5.55364
5.29301
5.05573
4.83926
4.6414
14.0082
12.6147
11.4782
10.5294
9.71798
9.01185
8.38979
7.83713
7.34341
6.90071
6.50273
6.14412
5.82025
5.52714
5.26133
5.01978
4.79985
4.59926
13.9894
12.606
11.4909
10.5534
9.74074
9.02446
8.38804
7.82044
7.31286
6.85813
6.45008
6.08332
5.75313
5.45526
5.18603
4.94219
4.72089
4.51965
13.9708
12.6157
11.5176
10.5714
9.73521
8.99248
8.3318
7.74383
7.22055
6.7546
6.33916
5.96806
5.63584
5.33774
5.06953
4.82758
4.60874
4.41036
13.9777
12.6806
11.5761
10.585
9.69891
8.91403
8.22269
7.61499
7.08066
6.60984
6.19374
5.82478
5.49648
5.20332
4.94065
4.7045
4.49152
4.29888
14.0754
12.8759
11.7068
10.6187
9.6551
8.81985
8.09999
7.47878
6.94048
6.47154
6.06078
5.69903
5.37885
5.0941
4.83976
4.61163
4.40626
4.22072
14.4156
13.3342
11.9767
10.7226
9.66034
8.77323
8.03024
7.40216
6.86576
6.40328
6.00113
5.64882
5.33813
5.06252
4.81677
4.59658
4.39847
4.21947
15.3313
14.2821
12.4866
10.986
9.80702
8.87157
8.11128
7.48023
6.9475
6.49158
6.09702
5.75238
5.44899
5.18008
4.94035
4.72552
4.53211
4.35714
17.7196
15.9979
13.4161
11.5942
10.2895
9.30359
8.5235
7.88549
7.35126
6.89601
6.5028
6.15947
5.85703
5.58864
5.34895
5.13374
4.93954
4.76335
24.0587
19.2728
15.2746
13.0482
11.597
10.5432
9.72408
9.05944
8.5045
8.03162
7.62248
7.26426
6.94762
6.66555
6.41261
6.18462
5.9779
5.78964
45.5297
26.7486
20.1575
17.3339
15.6249
14.4131
13.4781
12.7197
12.0845
11.5402
11.066
10.6474
10.2743
9.939
9.63552
9.35966
9.10666
8.87547
182.195
57.8098
45.0243
39.9098
36.9029
34.7765
33.1268
31.7743
30.6238
29.6199
28.728
27.9248
27.194
26.5239
25.9054
25.3328
24.7958
24.3035
0.00967456
0.00640273
0.00905617
0.012263
0.0155573
0.0185802
0.021199
0.0233541
0.0250868
0.0265854
0.0282697
0.031071
0.0362246
0.0434315
0.0525211
0.0636076
0.0769469
0.0928478
0.11161
0.133496
0.158701
0.187333
0.219375
0.254708
0.293105
0.334265
0.377809
0.42333
0.470379
0.518526
0.567347
0.616476
0.665461
0.713946
0.761615
0.808221
0.853515
0.89732
0.939444
0.979766
1.01814
1.05447
1.08863
1.12057
1.15016
1.17738
1.20216
1.22456
1.24464
1.26277
1.27886
1.29295
1.30506
1.31526
1.32354
1.32994
1.33399
1.33726
1.33811
1.33758
1.335
1.33081
1.32496
1.31755
1.3086
1.29818
1.28632
1.2731
1.25853
1.24262
1.22552
1.20748
1.18837
1.16832
1.14739
1.12565
1.1032
1.0801
1.05643
1.03226
1.00768
0.982755
0.957563
0.932168
0.90665
0.881072
0.855515
0.830049
0.804777
0.77984
0.755624
0.733671
0.720226
0.717831
0.718666
0.720025
0.72133
0.722451
0.723382
0.724096
0.724613
0.724946
0.725119
0.72513
0.724972
0.724663
0.724206
0.723642
0.722967
0.722177
0.721282
0.720282
0.719187
0.717995
0.716714
0.715342
0.713887
0.712345
0.710721
0.709015
0.707233
0.70537
0.703434
0.701421
0.699334
0.697168
0.694928
0.692609
0.690214
0.68774
0.685193
0.682572
0.679885
0.67713
0.674312
0.671429
0.668484
0.665476
0.662408
0.659283
0.656093
0.652861
0.649553
0.646158
0.642688
0.639159
0.635586
0.631981
0.628351
0.624705
0.621047
0.617381
0.61371
0.610037
0.606364
0.602692
0.599023
0.595357
0.591693
0.588027
0.584358
0.580684
0.577001
0.5733
0.569571
0.565799
0.561963
0.558034
0.553972
0.549728
0.545226
0.540374
0.535039
0.529005
0.522136
0.513562
0.504187
0.488793
0.475772
0.432192
0.0235805
0.0125454
0.0100816
0.0102382
0.0113986
0.0131311
0.0152256
0.0176004
0.0202426
0.0232204
0.0266837
0.0308506
0.0359201
0.0419317
0.0488891
0.0568175
0.0657573
0.0757488
0.0868252
0.0990271
0.112266
0.126347
0.141114
0.156401
0.172033
0.187846
0.203684
0.219393
0.234841
0.249935
0.264602
0.278793
0.292468
0.305611
0.318217
0.330292
0.341845
0.352888
0.363431
0.373488
0.383065
0.392171
0.400808
0.408987
0.416713
0.424009
0.430918
0.437529
0.444056
0.45088
0.45751
0.463682
0.469385
0.474608
0.479337
0.483561
0.487268
0.49054
0.493228
0.495432
0.497081
0.498218
0.498847
0.498921
0.498461
0.497513
0.496068
0.494126
0.491699
0.488781
0.485414
0.481644
0.477453
0.472863
0.467892
0.462561
0.45689
0.450901
0.444616
0.438058
0.431249
0.424211
0.416969
0.409545
0.401964
0.394251
0.386433
0.378542
0.370621
0.362745
0.355081
0.348056
0.342616
0.339137
0.336629
0.334466
0.332391
0.330314
0.328202
0.326043
0.323836
0.321586
0.319299
0.316977
0.314624
0.312245
0.309845
0.307432
0.305009
0.302579
0.300145
0.29771
0.295278
0.29285
0.290429
0.288016
0.285615
0.283226
0.280851
0.278493
0.276157
0.27384
0.271541
0.26926
0.266999
0.264756
0.262533
0.260328
0.258143
0.255977
0.25383
0.251701
0.249592
0.247504
0.245435
0.243387
0.241358
0.239348
0.237358
0.235386
0.233432
0.231493
0.229609
0.227758
0.22592
0.224092
0.222275
0.22047
0.21868
0.216905
0.215147
0.213408
0.211689
0.209988
0.208307
0.206645
0.205002
0.203378
0.201773
0.200185
0.198614
0.19706
0.195524
0.194004
0.1925
0.191012
0.189537
0.188074
0.186619
0.185169
0.183718
0.182261
0.180792
0.179281
0.177789
0.176096
0.1747
0.172561
0.17135
0.170072
0.0437662
0.0210324
0.0155955
0.0147864
0.0156516
0.0173937
0.0197645
0.0226689
0.026073
0.0299782
0.0344103
0.0394031
0.0449735
0.0511006
0.0577437
0.0648571
0.0723925
0.0802919
0.0884774
0.0968377
0.105323
0.113923
0.12259
0.131279
0.13995
0.14857
0.157109
0.165547
0.173868
0.182062
0.190127
0.198059
0.20586
0.213532
0.221075
0.228493
0.235785
0.242953
0.249992
0.256902
0.263677
0.270314
0.276808
0.283156
0.289358
0.295418
0.301348
0.307184
0.31294
0.31859
0.324047
0.329257
0.334195
0.338846
0.343194
0.347227
0.350934
0.354311
0.357335
0.360005
0.362312
0.364253
0.365824
0.367017
0.367853
0.368272
0.368336
0.368017
0.367348
0.366323
0.364951
0.363251
0.361225
0.358885
0.356243
0.35331
0.350101
0.34663
0.342912
0.338962
0.334795
0.330428
0.325878
0.32116
0.316294
0.311296
0.306189
0.300996
0.295753
0.290511
0.285363
0.280476
0.276091
0.272307
0.26893
0.265766
0.262695
0.259658
0.256627
0.253589
0.250542
0.247486
0.244423
0.241358
0.238293
0.235234
0.232183
0.229144
0.226121
0.223115
0.22013
0.217168
0.214232
0.211324
0.208446
0.205599
0.202786
0.200007
0.197264
0.194558
0.191891
0.189263
0.186673
0.184123
0.181613
0.179142
0.176711
0.174322
0.171974
0.169667
0.167399
0.165171
0.162982
0.160832
0.158722
0.156651
0.154618
0.152624
0.150668
0.148748
0.146865
0.145018
0.143211
0.141444
0.139712
0.138012
0.136344
0.134707
0.133101
0.131529
0.129989
0.128481
0.127005
0.125559
0.124144
0.122758
0.121402
0.120075
0.118777
0.117507
0.116265
0.11505
0.113862
0.112702
0.111569
0.110463
0.109384
0.108334
0.107311
0.106318
0.105356
0.104427
0.103539
0.102685
0.101919
0.101154
0.100666
0.100066
0.100112
0.102185
0.0591771
0.0286057
0.0217815
0.0207103
0.0216416
0.0236389
0.0263759
0.0297206
0.0335997
0.0379564
0.0427368
0.0478851
0.0533421
0.0590461
0.06494
0.0709756
0.0771154
0.0833292
0.0895929
0.09589
0.102212
0.10856
0.114931
0.121319
0.127718
0.134126
0.140537
0.14695
0.153363
0.159776
0.166188
0.1726
0.17901
0.185418
0.191822
0.198219
0.204605
0.210975
0.217322
0.22364
0.22992
0.236154
0.242334
0.248451
0.254496
0.260463
0.266349
0.272147
0.277834
0.283381
0.288754
0.293922
0.298864
0.30356
0.307995
0.312152
0.316018
0.319581
0.322828
0.325749
0.328338
0.330586
0.33249
0.334046
0.335254
0.336109
0.336589
0.336723
0.336521
0.335988
0.335127
0.333947
0.332458
0.330668
0.328589
0.326232
0.323611
0.320737
0.317626
0.314292
0.310748
0.30701
0.303094
0.299015
0.294789
0.290433
0.285968
0.281414
0.2768
0.272164
0.267561
0.26307
0.258777
0.254722
0.250862
0.24713
0.243474
0.239859
0.236267
0.232688
0.229121
0.225564
0.222021
0.218493
0.214985
0.211503
0.208047
0.20462
0.201224
0.197862
0.194538
0.191252
0.188008
0.184807
0.18165
0.178539
0.175476
0.172461
0.169496
0.16658
0.163715
0.1609
0.158136
0.155423
0.152761
0.150149
0.147588
0.145078
0.142618
0.140208
0.137847
0.135534
0.13327
0.131054
0.128884
0.126762
0.124688
0.122659
0.120674
0.118734
0.116836
0.11498
0.113168
0.111398
0.109669
0.10798
0.106328
0.104713
0.103134
0.101592
0.100086
0.0986154
0.0971795
0.0957776
0.0944094
0.0930741
0.091771
0.0904996
0.0892594
0.0880498
0.0868705
0.0857208
0.0846006
0.0835096
0.0824477
0.0814151
0.080412
0.079439
0.0784969
0.0775871
0.0767121
0.0758743
0.0750821
0.0743339
0.073666
0.0730444
0.0726169
0.0722154
0.072294
0.0737601
0.0670479
0.0348367
0.0279259
0.0268745
0.0278769
0.0299801
0.032823
0.0362422
0.040133
0.0444065
0.0489784
0.0537702
0.0587135
0.0637538
0.0688528
0.0739878
0.0791487
0.0843346
0.0895471
0.0948095
0.10011
0.105462
0.110873
0.116347
0.121885
0.127491
0.133165
0.138909
0.144723
0.150608
0.156563
0.162588
0.168681
0.174839
0.181059
0.187333
0.193657
0.20002
0.206415
0.21283
0.219253
0.225673
0.232077
0.238451
0.244781
0.251054
0.257254
0.263354
0.269328
0.275151
0.280795
0.286237
0.291453
0.296425
0.301132
0.30556
0.309691
0.313512
0.317011
0.320176
0.323
0.325475
0.327596
0.329359
0.330763
0.331807
0.332481
0.332776
0.332742
0.332365
0.331652
0.330611
0.329252
0.327587
0.325626
0.323382
0.320868
0.318097
0.315085
0.311846
0.308395
0.304747
0.300918
0.296925
0.292782
0.288508
0.284121
0.279641
0.275092
0.270504
0.265913
0.261363
0.256897
0.252538
0.248281
0.244103
0.239983
0.235902
0.231852
0.227826
0.223823
0.219845
0.215892
0.211969
0.208077
0.204211
0.200383
0.196597
0.192856
0.189164
0.185522
0.181933
0.178399
0.17492
0.171499
0.168136
0.164834
0.161593
0.158413
0.155293
0.152235
0.149237
0.1463
0.143424
0.140609
0.137853
0.135158
0.132522
0.129944
0.127424
0.124961
0.122554
0.120202
0.117904
0.11566
0.11347
0.111331
0.109243
0.107205
0.105217
0.103276
0.101382
0.099535
0.0977344
0.0959784
0.0942655
0.0925943
0.090964
0.0893738
0.0878229
0.0863106
0.084836
0.0833984
0.081997
0.080631
0.0792997
0.0780022
0.0767379
0.0755061
0.0743063
0.0731378
0.072
0.0708926
0.0698151
0.0687674
0.0677494
0.0667612
0.0658031
0.0648759
0.0639807
0.0631195
0.0622946
0.061512
0.0607737
0.060101
0.0594851
0.0590015
0.0585953
0.0585171
0.0592679
0.0875748
0.0444026
0.0350306
0.033199
0.0338266
0.0357036
0.0383456
0.0415315
0.0451268
0.0490287
0.0531512
0.0574229
0.0617894
0.0662144
0.0706788
0.0751777
0.0797143
0.0843103
0.0889838
0.093694
0.0984976
0.103398
0.108401
0.113512
0.118737
0.12408
0.129542
0.135128
0.140838
0.146674
0.152635
0.158718
0.164922
0.171242
0.177674
0.184207
0.190831
0.197535
0.204307
0.211133
0.217997
0.224881
0.231768
0.238639
0.245476
0.252257
0.258957
0.265547
0.272001
0.278291
0.284392
0.290277
0.295922
0.301307
0.306409
0.31121
0.315693
0.319843
0.323645
0.327089
0.330165
0.332865
0.335184
0.33712
0.338669
0.339833
0.34061
0.34098
0.340999
0.340648
0.339942
0.338888
0.337498
0.335784
0.333757
0.331434
0.328826
0.325951
0.322823
0.319458
0.315873
0.312084
0.308107
0.30396
0.299659
0.295222
0.290668
0.286015
0.281285
0.276502
0.271692
0.266884
0.262106
0.257375
0.252697
0.24807
0.243488
0.238943
0.234433
0.229956
0.225513
0.221106
0.216737
0.21241
0.208128
0.203895
0.199713
0.195585
0.191515
0.187505
0.183556
0.179672
0.175853
0.172102
0.168419
0.164804
0.161259
0.15778
0.154371
0.151034
0.147767
0.144572
0.141448
0.138394
0.135409
0.132494
0.129648
0.12687
0.124158
0.121511
0.118929
0.116409
0.113952
0.111555
0.109219
0.106941
0.104721
0.102557
0.100449
0.0983944
0.0963923
0.0944415
0.0925411
0.0906901
0.0888872
0.087131
0.08542
0.0837535
0.0821307
0.0805502
0.0790108
0.0775116
0.0760517
0.0746303
0.0732462
0.0718986
0.0705867
0.0693095
0.0680664
0.0668566
0.0656792
0.0645337
0.0634196
0.0623363
0.0612834
0.0602607
0.0592682
0.058306
0.0573745
0.0564746
0.0556079
0.0547762
0.0539838
0.0532338
0.0525392
0.0519012
0.0513594
0.0509058
0.0506382
0.0509789
0.137176
0.0607025
0.0438255
0.0396566
0.0392467
0.0404989
0.0426721
0.0454251
0.0485763
0.052009
0.0556399
0.0594089
0.0632758
0.0672179
0.0712248
0.07531
0.0794977
0.0837633
0.0880969
0.0925527
0.0971382
0.101862
0.106731
0.111753
0.116934
0.122279
0.127794
0.13348
0.139342
0.145383
0.151597
0.15798
0.164528
0.171232
0.178079
0.185066
0.192186
0.199427
0.206774
0.214207
0.221706
0.229248
0.236808
0.244358
0.251868
0.259311
0.266659
0.273883
0.280954
0.287841
0.294516
0.300951
0.30712
0.312998
0.318563
0.323793
0.328671
0.333179
0.337304
0.341032
0.344355
0.347266
0.349758
0.35183
0.35348
0.354711
0.35552
0.355899
0.355889
0.355484
0.354695
0.353532
0.352008
0.350138
0.347936
0.345418
0.342599
0.339497
0.336128
0.332512
0.328664
0.324603
0.320346
0.315913
0.31132
0.306587
0.301731
0.296771
0.291728
0.286622
0.281475
0.276309
0.271145
0.265999
0.260883
0.255802
0.250756
0.245749
0.240779
0.235851
0.230965
0.226126
0.221336
0.216599
0.21192
0.207301
0.202746
0.198257
0.193838
0.189491
0.185217
0.18102
0.1769
0.172859
0.168898
0.165017
0.161216
0.157498
0.15386
0.150302
0.146826
0.143429
0.140113
0.136875
0.133716
0.130633
0.127625
0.124691
0.121831
0.119043
0.116328
0.113682
0.111105
0.108596
0.106153
0.103775
0.10146
0.0992072
0.0970144
0.0948802
0.0928033
0.0907823
0.088816
0.086903
0.0850417
0.0832307
0.0814684
0.0797536
0.0780853
0.076462
0.0748827
0.073346
0.0718514
0.0703977
0.0689835
0.0676078
0.0662698
0.0649683
0.0637026
0.0624716
0.0612746
0.0601109
0.0589796
0.0578803
0.0568123
0.0557754
0.0547693
0.0537939
0.0528495
0.0519366
0.0510564
0.0502105
0.0494019
0.0486337
0.0479143
0.0472486
0.0466579
0.0461541
0.0457412
0.0458247
0.198893
0.0794479
0.0529059
0.0455716
0.0438241
0.0442218
0.0457794
0.048013
0.0506835
0.0536547
0.0568417
0.0601898
0.0636656
0.0672678
0.071008
0.0748534
0.0787855
0.0828392
0.0870415
0.0914027
0.0959336
0.100644
0.105543
0.11064
0.115943
0.121458
0.127194
0.133148
0.139319
0.145698
0.152294
0.159112
0.16615
0.173404
0.180867
0.188519
0.196339
0.204309
0.212406
0.220606
0.228881
0.237206
0.24555
0.253882
0.262169
0.270377
0.278474
0.286426
0.294198
0.301757
0.309072
0.316112
0.322847
0.329253
0.335303
0.340975
0.346251
0.351112
0.355543
0.359534
0.363074
0.366157
0.368779
0.370937
0.372634
0.373871
0.374649
0.37497
0.374862
0.374327
0.373377
0.372025
0.370288
0.36818
0.365719
0.362922
0.359807
0.356394
0.3527
0.348746
0.34455
0.340132
0.335512
0.330708
0.325741
0.320628
0.315388
0.310042
0.304607
0.299104
0.293552
0.28797
0.282377
0.276789
0.271219
0.265675
0.260164
0.254692
0.249263
0.243882
0.238552
0.233278
0.228065
0.222915
0.217834
0.212826
0.207893
0.203038
0.198264
0.193575
0.188971
0.184454
0.180027
0.175689
0.171442
0.167287
0.163223
0.15925
0.15537
0.15158
0.14788
0.144271
0.14075
0.137317
0.133971
0.130711
0.127535
0.124442
0.121431
0.118499
0.115645
0.112869
0.110168
0.10754
0.104983
0.102496
0.100077
0.0977256
0.0954394
0.0932169
0.0910564
0.0889565
0.0869156
0.0849319
0.0830037
0.0811295
0.0793078
0.0775371
0.075816
0.074143
0.0725167
0.0709357
0.0693989
0.0679051
0.0664532
0.0650418
0.0636702
0.0623373
0.0610419
0.059783
0.0585597
0.0573711
0.0562164
0.0550949
0.054006
0.052949
0.0519238
0.05093
0.0499677
0.0490372
0.0481394
0.0472754
0.0464476
0.0456587
0.0449144
0.0442202
0.0435885
0.0430358
0.042541
0.0424186
0.266636
0.0987233
0.061483
0.0506613
0.047376
0.0468882
0.0477852
0.0494925
0.0517082
0.0542713
0.0570937
0.060139
0.063377
0.0667634
0.0702695
0.0739206
0.0777397
0.0817335
0.0859148
0.0902957
0.0948885
0.099705
0.104756
0.110053
0.115606
0.121412
0.127468
0.133789
0.14039
0.147283
0.154464
0.161922
0.169647
0.177625
0.185842
0.19428
0.202918
0.211732
0.220694
0.229773
0.238939
0.248155
0.257387
0.266596
0.275744
0.284792
0.2937
0.302431
0.310946
0.319209
0.327183
0.334837
0.342138
0.349059
0.355573
0.361659
0.367294
0.372463
0.377151
0.381347
0.385043
0.388233
0.390915
0.393089
0.394758
0.395927
0.396597
0.396784
0.3965
0.395756
0.394568
0.392953
0.390926
0.388507
0.385715
0.382568
0.379088
0.375295
0.37121
0.366854
0.362248
0.357412
0.352369
0.347137
0.341738
0.336191
0.330516
0.324733
0.318859
0.312915
0.306918
0.300888
0.294841
0.288794
0.28276
0.27675
0.270774
0.26484
0.258955
0.253123
0.247353
0.241647
0.236012
0.230452
0.224972
0.219575
0.214264
0.209044
0.203917
0.198884
0.193949
0.189112
0.184376
0.17974
0.175206
0.170774
0.166444
0.162216
0.15809
0.154064
0.150138
0.146312
0.142583
0.138951
0.135415
0.131973
0.128623
0.125363
0.122193
0.11911
0.116113
0.113199
0.110366
0.107614
0.104939
0.10234
0.0998156
0.097363
0.0949807
0.0926668
0.0904194
0.0882364
0.0861158
0.0840564
0.0820565
0.0801142
0.078228
0.0763963
0.0746174
0.0728897
0.0712116
0.0695816
0.0679985
0.0664608
0.0649672
0.0635163
0.062107
0.0607382
0.0594086
0.0581174
0.0568636
0.0556462
0.054464
0.0533165
0.0522028
0.0511223
0.0500745
0.0490591
0.0480759
0.0471251
0.0462071
0.0453229
0.0444743
0.0436634
0.0428945
0.0421725
0.0415052
0.0409077
0.0403571
0.0400778
0.334628
0.117171
0.0691286
0.0548044
0.0499357
0.0486007
0.0488683
0.0500921
0.0519122
0.0541682
0.0567487
0.0595638
0.0625688
0.0657682
0.0691673
0.0727655
0.0765714
0.0805959
0.0848516
0.0893524
0.0941121
0.0991453
0.104464
0.11007
0.115956
0.122156
0.128695
0.135579
0.142812
0.150386
0.158292
0.166523
0.175067
0.183908
0.193027
0.202399
0.211997
0.221789
0.231741
0.241817
0.251975
0.262174
0.27237
0.282521
0.292579
0.302502
0.312244
0.321762
0.331015
0.339962
0.348565
0.356791
0.364605
0.37198
0.378889
0.385309
0.391221
0.396609
0.401461
0.405767
0.409521
0.41272
0.415363
0.417454
0.418998
0.420002
0.420475
0.420431
0.419885
0.418846
0.417337
0.415378
0.412987
0.410184
0.406992
0.403431
0.399524
0.395294
0.390763
0.385954
0.380889
0.37559
0.37008
0.364381
0.358513
0.352497
0.346354
0.340102
0.333762
0.327352
0.320891
0.314397
0.307886
0.301374
0.294875
0.288403
0.281968
0.275579
0.269245
0.262973
0.25677
0.250642
0.244594
0.238632
0.23276
0.226982
0.221302
0.215722
0.210247
0.204878
0.199616
0.194464
0.189423
0.184494
0.179677
0.174971
0.170378
0.165897
0.161527
0.157267
0.153116
0.149074
0.145138
0.141308
0.137581
0.133957
0.130432
0.127006
0.123676
0.120441
0.117298
0.114245
0.11128
0.108401
0.105606
0.102892
0.100258
0.0977012
0.0952197
0.0928114
0.0904741
0.0882059
0.0860048
0.0838688
0.0817959
0.0797842
0.077832
0.0759373
0.0740982
0.0723132
0.0705807
0.0688992
0.0672671
0.0656829
0.0641451
0.0626523
0.0612032
0.0597966
0.058431
0.0571054
0.0558187
0.0545699
0.0533579
0.0521821
0.0510415
0.0499353
0.0488629
0.0478239
0.046818
0.0458451
0.0449055
0.0439999
0.0431296
0.0422963
0.0415032
0.0407543
0.0400551
0.0394176
0.0388237
0.0384275
0.397085
0.133674
0.0756037
0.0580055
0.0516591
0.0495068
0.0492352
0.0500525
0.0515874
0.0535809
0.0559147
0.0585438
0.0614383
0.0645797
0.0679643
0.071595
0.0754808
0.0796336
0.084068
0.0888024
0.0938466
0.099204
0.104875
0.1109
0.11731
0.124118
0.131337
0.138962
0.146986
0.155409
0.16422
0.173407
0.182953
0.192833
0.203022
0.213486
0.224189
0.235093
0.246152
0.257321
0.268552
0.279795
0.290999
0.302113
0.313085
0.323866
0.334408
0.344663
0.354586
0.364137
0.373275
0.381967
0.39018
0.397886
0.405059
0.41168
0.417732
0.4232
0.428075
0.432351
0.436024
0.439096
0.441568
0.443448
0.444743
0.445464
0.445625
0.445246
0.444329
0.442899
0.44098
0.438593
0.43576
0.432502
0.428844
0.424808
0.420418
0.4157
0.410677
0.405373
0.399811
0.394016
0.38801
0.381816
0.375456
0.368951
0.362321
0.355588
0.348769
0.341885
0.334954
0.327993
0.321018
0.314047
0.307093
0.300169
0.293287
0.286458
0.279691
0.272994
0.266375
0.259839
0.253394
0.247044
0.240795
0.23465
0.228613
0.222688
0.216877
0.211183
0.205607
0.20015
0.194815
0.189601
0.184509
0.179539
0.17469
0.169963
0.165356
0.160868
0.156498
0.152245
0.148108
0.144083
0.14017
0.136367
0.132671
0.129081
0.125595
0.122209
0.118922
0.115732
0.112636
0.109632
0.106717
0.103889
0.101146
0.0984854
0.0959049
0.0934021
0.0909749
0.088621
0.0863382
0.0841245
0.0819776
0.0798955
0.0778763
0.075918
0.0740186
0.0721764
0.0703893
0.0686558
0.0669742
0.0653427
0.0637598
0.0622241
0.0607342
0.0592886
0.0578861
0.0565253
0.055205
0.0539241
0.0526815
0.0514762
0.0503074
0.0491744
0.0480763
0.0470127
0.0459831
0.0449874
0.0440255
0.0430979
0.0422056
0.0413499
0.0405331
0.0397586
0.0390301
0.0383568
0.0377261
0.0372422
0.448441
0.147102
0.0806582
0.060274
0.0526657
0.049795
0.0491003
0.0495968
0.0508382
0.0526235
0.0548303
0.0573891
0.060264
0.0634387
0.0669093
0.0706806
0.0747656
0.0791769
0.0839185
0.0889931
0.09442
0.100241
0.106492
0.113192
0.120362
0.128009
0.136125
0.144712
0.153766
0.163278
0.17323
0.183603
0.194368
0.205492
0.216937
0.22866
0.240614
0.252747
0.265006
0.277335
0.289677
0.301973
0.314165
0.326198
0.338015
0.349562
0.360789
0.371648
0.382093
0.392083
0.401582
0.410555
0.418974
0.426813
0.434052
0.440673
0.446663
0.452013
0.456718
0.460776
0.464187
0.466955
0.469089
0.470598
0.471493
0.47179
0.471513
0.470665
0.469262
0.467337
0.464912
0.462009
0.458654
0.454869
0.450679
0.446111
0.441189
0.435939
0.430385
0.424554
0.418469
0.412154
0.405634
0.39893
0.392067
0.385065
0.377945
0.370728
0.363433
0.356079
0.348684
0.341266
0.333841
0.326425
0.319032
0.311676
0.304369
0.297122
0.289944
0.282845
0.275832
0.268912
0.262091
0.255376
0.24877
0.242279
0.235905
0.229653
0.223525
0.217523
0.211649
0.205904
0.20029
0.194806
0.189454
0.184232
0.17914
0.174179
0.169346
0.164641
0.160062
0.155607
0.151276
0.147065
0.142974
0.138999
0.135139
0.131391
0.127753
0.124222
0.120797
0.117474
0.11425
0.111125
0.108093
0.105155
0.102305
0.0995434
0.0968661
0.094271
0.0917556
0.0893177
0.0869548
0.0846646
0.0824449
0.0802934
0.0782081
0.0761867
0.0742273
0.0723279
0.0704865
0.0687012
0.0669703
0.065292
0.0636646
0.0620865
0.0605561
0.0590718
0.0576323
0.0562362
0.0548823
0.0535693
0.0522961
0.0510615
0.0498646
0.0487046
0.0475806
0.046492
0.0454385
0.0444196
0.0434353
0.0424857
0.0415714
0.0406936
0.0398539
0.0390549
0.0382994
0.037594
0.0369305
0.0363794
0.486019
0.157009
0.0843728
0.0617838
0.0531433
0.0496811
0.0486186
0.0488305
0.0499064
0.0515979
0.0537748
0.0563667
0.059338
0.0626768
0.0663805
0.0704431
0.0748624
0.0796405
0.0848233
0.0904512
0.0965559
0.103164
0.110303
0.117996
0.126239
0.135031
0.144372
0.154255
0.164666
0.175584
0.18698
0.198818
0.211058
0.22365
0.236543
0.249679
0.262996
0.276433
0.289925
0.303405
0.31681
0.330074
0.343136
0.355936
0.368417
0.380524
0.392209
0.403425
0.414131
0.42429
0.433869
0.442841
0.45118
0.458869
0.465892
0.472237
0.477898
0.482871
0.487156
0.490757
0.493678
0.49593
0.497524
0.498472
0.498794
0.498515
0.497639
0.496178
0.49417
0.491638
0.488606
0.485098
0.481141
0.476759
0.471978
0.466826
0.461327
0.455508
0.449395
0.443012
0.436386
0.429539
0.422497
0.415282
0.407916
0.400422
0.39282
0.38513
0.377372
0.369564
0.361725
0.35387
0.346017
0.338181
0.330376
0.322616
0.314912
0.307276
0.299717
0.292246
0.284868
0.277593
0.270426
0.263372
0.256438
0.249627
0.242943
0.236389
0.229967
0.223681
0.217531
0.21152
0.205647
0.199913
0.194318
0.188862
0.183545
0.178365
0.173322
0.168413
0.163639
0.158996
0.154483
0.150098
0.145838
0.141702
0.137687
0.13379
0.130009
0.126342
0.122784
0.119335
0.115991
0.11275
0.109608
0.106563
0.103613
0.100754
0.0979839
0.0953003
0.0927004
0.0901817
0.0877417
0.0853779
0.0830879
0.0808694
0.0787201
0.0766378
0.0746202
0.0726653
0.0707711
0.0689354
0.0671565
0.0654324
0.0637614
0.0621416
0.0605716
0.0590496
0.0575742
0.0561438
0.054757
0.0534126
0.0521094
0.0508461
0.0496217
0.0484353
0.0472859
0.046173
0.0450957
0.044054
0.0430474
0.0420762
0.0411405
0.0402412
0.0393794
0.0385572
0.0377765
0.0370423
0.0363492
0.035745
0.508613
0.163476
0.0868417
0.0626439
0.0532128
0.0493156
0.0479766
0.0480496
0.0490729
0.0507941
0.0530862
0.0558751
0.0591142
0.062774
0.0668386
0.0713438
0.0763235
0.081814
0.087842
0.0944428
0.101649
0.10949
0.117985
0.127123
0.136905
0.147325
0.158367
0.170006
0.18221
0.194937
0.208137
0.221756
0.235729
0.249992
0.264474
0.279102
0.293802
0.308501
0.323125
0.337605
0.351871
0.365858
0.379505
0.392754
0.405552
0.417853
0.429611
0.44079
0.451355
0.461278
0.470535
0.479106
0.486977
0.494135
0.500575
0.506292
0.511287
0.515563
0.519126
0.521984
0.524151
0.525638
0.526463
0.526638
0.526213
0.525159
0.523513
0.521308
0.518566
0.515313
0.511574
0.507373
0.502737
0.497694
0.492268
0.486486
0.480375
0.47396
0.467267
0.46032
0.453146
0.445766
0.438206
0.430487
0.422631
0.414661
0.406596
0.398455
0.390258
0.382024
0.373768
0.365508
0.357259
0.349036
0.340854
0.332725
0.32466
0.316672
0.308769
0.300961
0.293256
0.285661
0.278182
0.270825
0.263595
0.256497
0.249533
0.242707
0.236022
0.22948
0.223082
0.216829
0.210722
0.204762
0.198948
0.19328
0.187758
0.18238
0.177145
0.172052
0.167098
0.162283
0.157604
0.153059
0.148645
0.144361
0.140203
0.136169
0.132256
0.128461
0.124782
0.121216
0.11776
0.114411
0.111166
0.108022
0.104977
0.102027
0.0991705
0.0964038
0.0937244
0.0911296
0.0886169
0.0861836
0.0838272
0.0815453
0.0793354
0.0771952
0.0751224
0.0731147
0.0711701
0.0692864
0.0674616
0.0656938
0.063981
0.0623215
0.0607134
0.0591552
0.0576451
0.0561816
0.0547634
0.0533889
0.0520568
0.050766
0.0495152
0.0483034
0.0471297
0.0459933
0.0448934
0.0438296
0.0428015
0.0418093
0.0408529
0.0399329
0.0390501
0.038206
0.0374021
0.0366418
0.0359216
0.0352747
0.514026
0.165577
0.0877564
0.0628282
0.0530251
0.048868
0.0474368
0.0475501
0.0487127
0.0506577
0.053235
0.0563731
0.0600658
0.0643232
0.0691685
0.0746224
0.0807192
0.0874958
0.0949837
0.103213
0.112212
0.121996
0.13255
0.143862
0.155908
0.168651
0.182045
0.196034
0.210553
0.225529
0.240885
0.256538
0.272405
0.288399
0.304436
0.320433
0.336309
0.351987
0.367394
0.382463
0.39713
0.41134
0.425039
0.438183
0.45073
0.462644
0.473897
0.484462
0.494319
0.503453
0.51185
0.519504
0.526409
0.532565
0.537974
0.542641
0.546574
0.549782
0.552279
0.554077
0.555197
0.55565
0.555464
0.554669
0.553241
0.551237
0.548677
0.545584
0.541982
0.537898
0.533356
0.528381
0.523
0.517239
0.511123
0.504678
0.497929
0.490901
0.483618
0.476106
0.468386
0.460484
0.452419
0.444216
0.435894
0.427473
0.418974
0.410415
0.401813
0.393188
0.384554
0.375927
0.367323
0.358755
0.350237
0.341781
0.333399
0.325101
0.316897
0.308795
0.300804
0.29293
0.28518
0.277559
0.270072
0.262723
0.255516
0.248454
0.241539
0.234773
0.228158
0.221695
0.215384
0.209225
0.203219
0.197364
0.191661
0.186108
0.180704
0.175447
0.170335
0.165367
0.16054
0.155852
0.1513
0.146883
0.142597
0.138439
0.134407
0.130498
0.126709
0.123037
0.119479
0.116032
0.112693
0.109459
0.106328
0.103295
0.100359
0.0975157
0.0947632
0.0920984
0.0895186
0.0870211
0.0846032
0.0822625
0.0799963
0.0778023
0.075678
0.0736212
0.0716296
0.069701
0.0678333
0.0660245
0.0642726
0.0625756
0.0609319
0.0593395
0.0577968
0.0563022
0.0548542
0.0534512
0.052092
0.0507751
0.0494993
0.0482636
0.0470669
0.0459083
0.044787
0.0437024
0.0426541
0.0416418
0.0406657
0.0397261
0.0388235
0.037959
0.0371335
0.0363497
0.035605
0.0349227
0.505684
0.164611
0.0875085
0.0625792
0.0526886
0.0486148
0.047356
0.0477263
0.0492313
0.0516538