/*--------------------------------*- C++ -*----------------------------------*\
| =========                 |                                                 |
| \\      /  F ield         | OpenFOAM: The Open Source CFD Toolbox           |
|  \\    /   O peration     | Version:  2112                                  |
|   \\  /    A nd           | Website:  www.openfoam.com                      |
|    \\/     M anipulation  |                                                 |
\*---------------------------------------------------------------------------*/
FoamFile
{
    version     2.0;
    format      ascii;
    arch        "LSB;label=32;scalar=64";
    class       volScalarField;
    location    "237";
    object      k;
}
// * * * * * * * * * * * * * * * * * * * * * * * * * * * * * * * * * * * * * //

dimensions      [0 2 -2 0 0 0 0];

internalField   nonuniform List<scalar> 
12225
(
0.193514
0.0905788
0.0777019
0.0722616
0.0690949
0.0668814
0.0651694
0.063768
0.0625796
0.0615513
0.060655
0.0598786
0.059224
0.0587081
0.0583711
0.0583782
0.0588123
0.0600966
0.288
0.179214
0.14813
0.131816
0.120759
0.112336
0.105528
0.0998341
0.0949662
0.0907417
0.0870375
0.0837667
0.0808668
0.078293
0.076013
0.0740319
0.0722481
0.0709029
0.319772
0.228285
0.19085
0.169845
0.155395
0.144335
0.135369
0.127851
0.121409
0.115805
0.110879
0.106515
0.102627
0.0991501
0.0960307
0.0932374
0.0906912
0.0884287
0.334922
0.260037
0.221043
0.197457
0.180868
0.168072
0.157662
0.148913
0.141402
0.134858
0.129096
0.123981
0.119411
0.115309
0.111607
0.10826
0.105205
0.102437
0.343898
0.282685
0.244671
0.21982
0.201799
0.18772
0.176193
0.166468
0.158097
0.150789
0.144341
0.138607
0.133473
0.128851
0.124668
0.120867
0.117398
0.114249
0.349909
0.299575
0.263897
0.238768
0.219882
0.204869
0.192462
0.181935
0.17284
0.164877
0.157836
0.15156
0.14593
0.14085
0.136243
0.132048
0.128221
0.124745
0.354195
0.312423
0.279725
0.255063
0.235807
0.220179
0.207108
0.195935
0.186231
0.177704
0.170142
0.163386
0.157312
0.151821
0.146834
0.142289
0.138144
0.134376
0.357321
0.322235
0.292711
0.269051
0.249858
0.233918
0.220395
0.208729
0.198532
0.18953
0.181518
0.17434
0.167872
0.162015
0.156688
0.151831
0.147401
0.143368
0.359592
0.329658
0.303211
0.2809
0.26213
0.246162
0.232401
0.220401
0.209832
0.20045
0.192065
0.184528
0.177719
0.171541
0.165916
0.160784
0.1561
0.151827
0.361203
0.335155
0.311493
0.290706
0.272634
0.256893
0.2431
0.230929
0.220118
0.21046
0.201786
0.193959
0.186869
0.180422
0.174544
0.169175
0.164269
0.159784
0.362303
0.339075
0.31779
0.298549
0.281357
0.266052
0.252418
0.240238
0.22932
0.219496
0.210626
0.202588
0.195283
0.188625
0.182542
0.176979
0.171887
0.167219
0.362958
0.341501
0.321956
0.304035
0.287724
0.272958
0.259618
0.247569
0.236675
0.226805
0.217845
0.209692
0.202257
0.195463
0.189244
0.183545
0.178317
0.173515
0.363384
0.343116
0.324908
0.308142
0.2927
0.278535
0.265583
0.253765
0.242989
0.233161
0.22419
0.215991
0.208486
0.201609
0.195299
0.189504
0.184176
0.179269
0.36367
0.344169
0.326985
0.311267
0.296726
0.283265
0.270831
0.259376
0.248843
0.239165
0.230276
0.222111
0.214606
0.207703
0.20135
0.195497
0.190101
0.185118
0.363837
0.34468
0.328085
0.31314
0.299396
0.286661
0.274839
0.263868
0.253703
0.244299
0.235608
0.22758
0.220167
0.213319
0.20699
0.20114
0.195727
0.190712
0.363919
0.344784
0.328349
0.313794
0.300586
0.288446
0.277207
0.266765
0.257058
0.248036
0.239656
0.231874
0.22465
0.217946
0.211724
0.205947
0.200581
0.195592
0.363952
0.344688
0.328125
0.313615
0.300639
0.288853
0.278034
0.268034
0.258753
0.250121
0.242085
0.234599
0.227625
0.221126
0.21507
0.209424
0.204159
0.199246
0.363968
0.3446
0.327874
0.313266
0.300305
0.288642
0.278025
0.268271
0.259252
0.250877
0.243081
0.235812
0.229028
0.222691
0.21677
0.211235
0.206058
0.201213
0.363977
0.344653
0.327977
0.313403
0.300453
0.28878
0.278136
0.268346
0.259288
0.250874
0.24304
0.235735
0.228917
0.222549
0.216599
0.211036
0.205835
0.200969
0.363944
0.344774
0.328299
0.313786
0.300701
0.288729
0.277688
0.267453
0.257944
0.249099
0.24087
0.233212
0.226084
0.21945
0.213273
0.207519
0.202157
0.197158
0.363849
0.344658
0.328018
0.313069
0.299356
0.286677
0.274919
0.264014
0.253909
0.244554
0.235899
0.22789
0.220481
0.213625
0.207275
0.201391
0.195934
0.190869
0.363525
0.343609
0.325918
0.309712
0.29476
0.280987
0.268322
0.256697
0.246042
0.236282
0.227338
0.219139
0.211611
0.204692
0.198321
0.192446
0.187023
0.18201
0.362717
0.340665
0.32063
0.302333
0.285757
0.270819
0.257379
0.245276
0.234353
0.224471
0.215508
0.207358
0.199929
0.193139
0.18692
0.181209
0.175957
0.171119
0.361053
0.334752
0.311026
0.290182
0.272082
0.256327
0.242518
0.230327
0.219491
0.209801
0.201092
0.193229
0.186102
0.179619
0.173704
0.16829
0.163324
0.158761
0.358081
0.324783
0.296394
0.273163
0.25407
0.238073
0.224413
0.212568
0.202173
0.192965
0.184747
0.177367
0.170706
0.164668
0.159173
0.154155
0.149561
0.145347
0.353252
0.309491
0.276157
0.251347
0.23213
0.216593
0.203612
0.192513
0.182866
0.174377
0.166838
0.160093
0.154022
0.14853
0.143541
0.138992
0.134832
0.131022
0.345561
0.286889
0.2495
0.224574
0.206306
0.191951
0.180143
0.170141
0.161499
0.153928
0.147224
0.141239
0.135862
0.131004
0.126595
0.122578
0.118905
0.115549
0.332243
0.253174
0.214553
0.191589
0.175472
0.163035
0.152891
0.144342
0.136979
0.130543
0.124853
0.119781
0.115227
0.111116
0.107387
0.103991
0.100886
0.0980572
0.303309
0.199078
0.165342
0.14725
0.134892
0.125435
0.117751
0.11129
0.105737
0.100891
0.0966111
0.0927988
0.0893784
0.0862917
0.0834926
0.0809444
0.07861
0.0764973
0.208972
0.0972149
0.0822931
0.0759367
0.0720731
0.0692771
0.0670685
0.0652304
0.0636461
0.0622476
0.0609917
0.0598495
0.0588007
0.0578308
0.0569283
0.0560864
0.055291
0.0545567
0.00034246
0.000431196
0.00054315
0.000664662
0.000778817
0.000876597
0.000957014
0.00102068
0.00107039
0.00111231
0.00115826
0.00123243
0.0013641
0.0015388
0.00174606
0.00198328
0.00225108
0.00255074
0.00288303
0.00324781
0.00364395
0.00406918
0.00452001
0.00499226
0.00548117
0.0059819
0.00648954
0.00699953
0.0075075
0.00800974
0.00850306
0.00898499
0.0094526
0.0099038
0.0103371
0.0107517
0.0111465
0.0115213
0.0118754
0.012209
0.0125216
0.0128135
0.0130843
0.0133343
0.0135633
0.0137715
0.013959
0.0141266
0.0142752
0.0144078
0.0145243
0.0146248
0.0147101
0.0147805
0.0148364
0.0148781
0.0149056
0.014915
0.0149221
0.0149088
0.0148836
0.0148458
0.0147957
0.0147339
0.0146605
0.0145759
0.0144803
0.0143743
0.0142578
0.0141308
0.0139942
0.01385
0.013697
0.0135359
0.0133673
0.0131915
0.0130091
0.0128205
0.0126261
0.0124266
0.0122223
0.0120138
0.0118015
0.0115859
0.0113675
0.0111467
0.0109242
0.0107005
0.0104763
0.0102528
0.0100332
0.00982942
0.00969373
0.0096609
0.00966129
0.00966718
0.00967271
0.00967657
0.00967852
0.00967861
0.00967703
0.00967365
0.00966874
0.00966236
0.00965442
0.00964507
0.00963434
0.00962262
0.00960985
0.00959604
0.00958124
0.00956548
0.00954882
0.00953127
0.00951288
0.00949364
0.00947362
0.00945279
0.00943119
0.00940882
0.00938571
0.00936187
0.00933731
0.00931203
0.00928603
0.0092593
0.00923186
0.00920367
0.00917477
0.00914512
0.00911476
0.00908371
0.009052
0.00901964
0.00898667
0.00895305
0.00891883
0.00888399
0.00884856
0.00881256
0.00877593
0.00873885
0.00870107
0.00866245
0.00862309
0.00858311
0.00854267
0.00850187
0.00846076
0.00841944
0.00837795
0.00833631
0.00829456
0.00825272
0.00821082
0.00816885
0.00812684
0.00808479
0.00804268
0.00800048
0.00795819
0.00791579
0.00787322
0.00783042
0.0077873
0.00774371
0.00769946
0.00765428
0.00760781
0.00755959
0.00750892
0.00745494
0.0073964
0.00733127
0.00725828
0.00716919
0.00707239
0.00691813
0.00678735
0.00635525
0.000619918
0.000679822
0.000891722
0.00112491
0.0013441
0.0015475
0.00173843
0.0019225
0.00210523
0.0022914
0.00248598
0.00269455
0.00292178
0.00316841
0.00343443
0.0037205
0.00402766
0.00435671
0.00470783
0.00508066
0.00547465
0.00588879
0.0063213
0.0067703
0.00723382
0.00771002
0.00819716
0.00869372
0.00919781
0.00970757
0.0102217
0.0107391
0.0112585
0.0117789
0.0122991
0.0128183
0.0133353
0.0138493
0.0143592
0.014864
0.0153626
0.015854
0.016337
0.0168106
0.0172735
0.0177238
0.0181601
0.0185808
0.0189843
0.0193697
0.0197399
0.0200959
0.0204372
0.0207632
0.0210732
0.0213668
0.0216434
0.0219024
0.0221445
0.0223677
0.0225726
0.0227589
0.0229264
0.0230751
0.0232049
0.023316
0.0234082
0.023482
0.0235374
0.0235717
0.0235857
0.0235858
0.0235681
0.0235334
0.0234822
0.023415
0.0233324
0.0232348
0.0231229
0.0229973
0.0228586
0.0227074
0.0225444
0.0223701
0.0221854
0.0219908
0.0217871
0.0215749
0.0213551
0.0211287
0.0208976
0.0206656
0.0204411
0.0202284
0.0200188
0.0198074
0.0195925
0.0193739
0.0191518
0.0189268
0.0186993
0.0184695
0.0182381
0.0180052
0.0177713
0.0175366
0.0173015
0.0170664
0.0168314
0.0165969
0.0163631
0.0161301
0.0158984
0.0156679
0.0154389
0.0152116
0.0149862
0.0147627
0.0145414
0.0143223
0.0141057
0.0138916
0.0136801
0.0134712
0.013265
0.0130616
0.0128611
0.0126635
0.0124687
0.0122769
0.0120881
0.0119024
0.0117197
0.0115402
0.0113639
0.0111906
0.0110204
0.0108533
0.0106892
0.0105281
0.01037
0.010215
0.0100627
0.00991288
0.00976568
0.00962123
0.00947958
0.00934076
0.00920472
0.00907154
0.00894117
0.00881356
0.00868866
0.00856641
0.00844674
0.00832959
0.00821489
0.00810262
0.0079926
0.00788479
0.00777916
0.00767568
0.0075743
0.00747496
0.00737761
0.00728215
0.00718851
0.0070966
0.00700627
0.00691744
0.00682987
0.00674347
0.00665785
0.00657272
0.00648835
0.00640115
0.00632029
0.00621957
0.00615515
0.00596952
0.000936486
0.0011035
0.00147814
0.0018359
0.00215904
0.00246077
0.00275253
0.00304241
0.00333588
0.00363661
0.00394713
0.00426934
0.00460451
0.00495331
0.00531635
0.00569461
0.00608942
0.00650215
0.00693391
0.00738528
0.00785612
0.00834592
0.00885404
0.00937964
0.00992162
0.0104787
0.0110495
0.0116325
0.0122258
0.012828
0.0134372
0.014052
0.0146707
0.0152919
0.015914
0.0165357
0.0171557
0.0177726
0.0183853
0.0189924
0.0195929
0.0201854
0.020769
0.0213422
0.0219041
0.0224535
0.0229892
0.0235104
0.0240165
0.024507
0.0249813
0.0254389
0.0258787
0.0263
0.0267018
0.0270834
0.027444
0.0277831
0.0281001
0.0283944
0.0286655
0.0289133
0.0291374
0.0293376
0.0295139
0.0296664
0.029795
0.0298999
0.0299811
0.0300388
0.0300709
0.0300812
0.0300706
0.0300383
0.029985
0.0299113
0.0298178
0.0297053
0.0295744
0.029426
0.0292607
0.0290795
0.028883
0.0286721
0.0284478
0.0282107
0.0279619
0.0277022
0.0274327
0.0271547
0.02687
0.0265814
0.0262926
0.0260051
0.0257168
0.0254254
0.02513
0.0248305
0.024527
0.0242201
0.0239102
0.0235978
0.0232834
0.0229675
0.0226505
0.0223328
0.0220149
0.0216971
0.0213797
0.0210632
0.0207477
0.0204337
0.0201213
0.0198108
0.0195025
0.0191965
0.0188931
0.0185925
0.0182947
0.0180001
0.0177087
0.0174207
0.0171362
0.0168553
0.016578
0.0163045
0.0160349
0.0157691
0.0155073
0.0152494
0.0149955
0.0147459
0.0145004
0.0142591
0.014022
0.013789
0.0135601
0.0133354
0.0131147
0.0128981
0.0126855
0.0124771
0.0122726
0.0120719
0.011875
0.0116818
0.0114924
0.0113068
0.0111248
0.0109465
0.0107719
0.0106008
0.0104334
0.0102694
0.0101088
0.00995154
0.00979759
0.00964687
0.00949941
0.00935512
0.00921391
0.00907572
0.00894047
0.0088081
0.00867854
0.00855172
0.00842756
0.00830598
0.00818689
0.00807023
0.00795585
0.00784375
0.0077337
0.00762567
0.00752
0.0074147
0.00731673
0.00720757
0.00714133
0.00695651
0.0011455
0.00156865
0.00212448
0.00259871
0.00301133
0.00339059
0.00375474
0.00411515
0.00447879
0.00484967
0.00522992
0.00562063
0.00602255
0.00643645
0.00686343
0.00730498
0.00776275
0.00823835
0.00873302
0.00924747
0.00978193
0.0103361
0.0109094
0.0115006
0.0121086
0.0127318
0.0133685
0.0140172
0.014676
0.0153433
0.0160177
0.0166974
0.0173812
0.0180675
0.0187552
0.0194429
0.0201295
0.0208136
0.0214942
0.02217
0.0228398
0.0235024
0.0241566
0.0248012
0.0254351
0.0260569
0.0266657
0.0272603
0.0278397
0.0284028
0.0289485
0.0294755
0.0299827
0.0304689
0.0309333
0.0313746
0.0317922
0.0321851
0.0325526
0.032894
0.0332089
0.0334968
0.0337574
0.0339904
0.0341957
0.0343733
0.0345232
0.0346457
0.0347408
0.0348088
0.0348484
0.0348618
0.0348507
0.0348147
0.0347542
0.0346702
0.0345632
0.0344342
0.0342839
0.0341133
0.0339233
0.0337147
0.0334886
0.0332459
0.0329875
0.0327145
0.0324279
0.0321289
0.0318185
0.0314982
0.0311696
0.0308348
0.030496
0.0301543
0.0298094
0.0294605
0.0291073
0.0287497
0.0283881
0.0280229
0.0276546
0.0272839
0.0269111
0.026537
0.0261619
0.0257863
0.0254108
0.0250357
0.0246615
0.0242885
0.023917
0.0235475
0.0231801
0.0228152
0.0224531
0.0220939
0.021738
0.0213854
0.0210365
0.0206913
0.0203501
0.0200129
0.01968
0.0193513
0.0190271
0.0187073
0.0183921
0.0180816
0.0177756
0.0174744
0.0171779
0.0168863
0.0165994
0.0163174
0.0160402
0.0157678
0.0155002
0.0152374
0.0149793
0.014726
0.0144773
0.0142334
0.0139941
0.0137594
0.0135291
0.0133032
0.0130816
0.0128643
0.0126513
0.0124425
0.0122379
0.0120375
0.0118412
0.0116488
0.0114603
0.0112757
0.0110949
0.0109179
0.0107445
0.0105748
0.0104086
0.0102459
0.0100866
0.0099306
0.00977793
0.00962847
0.00948216
0.00933894
0.00919874
0.00906152
0.0089272
0.0087958
0.00866726
0.00854165
0.00841936
0.00829948
0.00818704
0.00806964
0.00799136
0.00782624
0.00124512
0.0020282
0.00276407
0.00334653
0.00383876
0.00428173
0.00469961
0.00510727
0.00551402
0.00592548
0.0063449
0.00677428
0.00721508
0.00766877
0.00813698
0.00862146
0.00912388
0.00964564
0.0101877
0.0107503
0.0113335
0.0119366
0.0125586
0.0131984
0.0138546
0.0145257
0.0152103
0.0159067
0.0166137
0.0173297
0.0180534
0.0187836
0.019519
0.0202583
0.0210005
0.0217441
0.0224882
0.0232313
0.0239724
0.02471
0.0254429
0.0261697
0.0268891
0.0275996
0.0282999
0.0289885
0.029664
0.030325
0.03097
0.0315976
0.0322063
0.0327946
0.0333613
0.0339049
0.0344242
0.034918
0.0353854
0.0358252
0.0362367
0.0366191
0.0369718
0.0372942
0.0375861
0.037847
0.0380769
0.0382756
0.0384434
0.0385803
0.0386865
0.0387625
0.0388073
0.0388227
0.0388103
0.0387699
0.0387022
0.0386082
0.0384885
0.0383443
0.0381763
0.0379856
0.0377732
0.0375402
0.0372877
0.0370166
0.0367282
0.0364235
0.0361037
0.0357699
0.0354235
0.0350658
0.0346984
0.0343228
0.0339408
0.0335533
0.0331609
0.0327636
0.0323614
0.0319547
0.0315439
0.0311295
0.0307119
0.0302919
0.0298701
0.0294469
0.029023
0.0285989
0.0281752
0.0277522
0.0273304
0.0269103
0.0264922
0.0260765
0.0256635
0.0252535
0.0248468
0.0244438
0.0240445
0.0236493
0.0232583
0.0228718
0.0224898
0.0221125
0.0217401
0.0213727
0.0210103
0.0206531
0.020301
0.0199543
0.0196128
0.0192767
0.018946
0.0186207
0.0183008
0.0179863
0.0176773
0.0173736
0.0170753
0.0167823
0.0164946
0.0162121
0.0159349
0.0156628
0.0153959
0.015134
0.0148771
0.0146251
0.0143779
0.0141354
0.0138976
0.0136646
0.0134363
0.0132125
0.0129932
0.0127783
0.0125677
0.0123613
0.0121591
0.0119611
0.0117671
0.0115771
0.011391
0.0112087
0.0110302
0.0108554
0.0106843
0.0105167
0.0103526
0.010192
0.0100347
0.00988087
0.00973033
0.00958315
0.00943935
0.00929904
0.00916259
0.00902974
0.00890385
0.00877731
0.00868224
0.00852117
0.00148584
0.00248786
0.00336222
0.00403374
0.00459053
0.00508244
0.00553847
0.00597676
0.00640911
0.00684329
0.00728441
0.00773593
0.00820044
0.00868008
0.00917674
0.00969208
0.0102274
0.0107837
0.0113615
0.0119606
0.0125805
0.0132204
0.0138795
0.0145565
0.0152502
0.0159593
0.0166827
0.017419
0.0181671
0.0189258
0.0196939
0.0204703
0.0212539
0.0220435
0.0228379
0.0236358
0.024436
0.0252372
0.0260378
0.0268365
0.0276317
0.028422
0.0292055
0.0299807
0.030746
0.0314995
0.0322395
0.0329642
0.033672
0.034361
0.0350296
0.035676
0.0362986
0.036896
0.0374667
0.0380095
0.038523
0.0390062
0.0394582
0.0398781
0.0402652
0.040619
0.040939
0.0412249
0.0414766
0.041694
0.0418772
0.0420265
0.0421421
0.0422245
0.042273
0.0422894
0.0422748
0.0422297
0.0421546
0.0420506
0.0419186
0.0417597
0.0415748
0.0413652
0.0411319
0.0408761
0.040599
0.0403017
0.0399854
0.0396514
0.039301
0.0389353
0.0385557
0.0381636
0.0377604
0.0373475
0.0369265
0.0364983
0.0360638
0.0356236
0.035178
0.0347277
0.0342731
0.0338147
0.0333534
0.0328896
0.0324241
0.0319575
0.0314903
0.0310232
0.0305566
0.0300912
0.0296274
0.0291656
0.0287063
0.0282498
0.0277965
0.0273468
0.026901
0.0264593
0.0260219
0.0255892
0.0251614
0.0247385
0.0243209
0.0239085
0.0235016
0.0231003
0.0227047
0.0223149
0.0219308
0.0215527
0.0211804
0.0208141
0.0204538
0.0200994
0.019751
0.0194085
0.019072
0.0187415
0.0184168
0.018098
0.0177849
0.0174776
0.017176
0.01688
0.0165896
0.0163047
0.0160252
0.015751
0.015482
0.0152182
0.0149595
0.0147059
0.0144573
0.0142136
0.0139747
0.0137405
0.0135109
0.013286
0.0130657
0.0128498
0.0126384
0.0124311
0.0122281
0.0120293
0.0118345
0.0116438
0.0114569
0.011274
0.0110948
0.0109194
0.0107478
0.0105798
0.0104155
0.0102549
0.0100981
0.00994521
0.00979657
0.00965227
0.0095145
0.00937907
0.00926765
0.00910845
0.00200447
0.00293744
0.00389285
0.00462847
0.0052322
0.0057592
0.0062417
0.0067003
0.0071489
0.00759715
0.00805184
0.00851781
0.00899857
0.00949673
0.0100143
0.0105527
0.011113
0.0116957
0.0123008
0.0129279
0.0135765
0.0142458
0.014935
0.015643
0.0163689
0.0171116
0.0178702
0.0186436
0.0194308
0.0202308
0.0210425
0.0218649
0.0226968
0.0235371
0.0243843
0.0252373
0.0260945
0.0269545
0.0278156
0.0286762
0.0295344
0.0303884
0.0312363
0.0320761
0.0329058
0.0337233
0.0345267
0.0353137
0.0360825
0.0368309
0.037557
0.038259
0.0389351
0.0395835
0.0402027
0.0407912
0.0413478
0.0418712
0.0423605
0.0428147
0.0432331
0.0436151
0.0439602
0.0442682
0.044539
0.0447725
0.0449688
0.0451282
0.0452511
0.045338
0.0453887
0.0454047
0.045387
0.0453361
0.045253
0.0451387
0.0449942
0.0448207
0.0446193
0.0443913
0.0441378
0.0438601
0.0435596
0.0432374
0.0428948
0.0425333
0.042154
0.0417584
0.0413477
0.0409234
0.0404868
0.0400394
0.0395824
0.0391172
0.0386446
0.0381655
0.0376807
0.0371907
0.0366963
0.0361982
0.0356971
0.0351936
0.0346886
0.0341825
0.0336762
0.0331701
0.0326649
0.0321612
0.0316594
0.03116
0.0306636
0.0301704
0.0296809
0.0291954
0.0287142
0.0282378
0.0277662
0.0272998
0.0268388
0.0263833
0.0259336
0.0254898
0.025052
0.0246203
0.024195
0.0237759
0.0233632
0.022957
0.0225572
0.0221639
0.0217772
0.0213969
0.0210231
0.0206558
0.020295
0.0199405
0.0195925
0.0192508
0.0189153
0.018586
0.0182628
0.0179457
0.0176346
0.0173294
0.01703
0.0167363
0.0164482
0.0161657
0.0158887
0.015617
0.0153507
0.0150896
0.0148336
0.0145826
0.0143366
0.0140955
0.0138592
0.0136277
0.0134007
0.0131784
0.0129604
0.012747
0.012538
0.0123332
0.0121327
0.0119362
0.0117439
0.0115556
0.0113713
0.011191
0.0110147
0.0108424
0.0106741
0.0105102
0.0103508
0.0101962
0.0100479
0.00990386
0.0097779
0.00961816
0.00256886
0.00331697
0.00432149
0.00510472
0.00574299
0.00629579
0.00679772
0.00727139
0.00773225
0.00819133
0.00865667
0.00913406
0.00962767
0.0101405
0.0106746
0.0112314
0.0118115
0.0124151
0.0130421
0.0136923
0.014365
0.0150597
0.0157757
0.0165122
0.0172684
0.0180435
0.0188367
0.0196472
0.020474
0.0213162
0.0221727
0.0230424
0.0239243
0.0248169
0.0257189
0.0266287
0.0275448
0.0284654
0.0293885
0.0303122
0.0312343
0.0321528
0.0330653
0.0339695
0.0348631
0.0357437
0.036609
0.0374566
0.0382843
0.0390897
0.0398707
0.0406253
0.0413515
0.0420475
0.0427116
0.0433422
0.043938
0.0444977
0.0450203
0.0455048
0.0459506
0.046357
0.0467236
0.0470501
0.0473366
0.0475829
0.0477893
0.0479561
0.0480837
0.0481728
0.0482236
0.0482373
0.0482149
0.048157
0.0480648
0.0479393
0.0477818
0.0475935
0.0473755
0.0471293
0.046856
0.0465572
0.0462341
0.0458881
0.0455205
0.0451328
0.0447264
0.0443025
0.0438627
0.0434082
0.0429405
0.042461
0.041971
0.0414718
0.0409645
0.0404501
0.0399295
0.0394036
0.038873
0.0383387
0.0378014
0.0372619
0.0367208
0.036179
0.035637
0.0350956
0.0345553
0.0340168
0.0334805
0.0329471
0.0324169
0.0318904
0.031368
0.0308501
0.030337
0.029829
0.0293264
0.0288295
0.0283385
0.0278535
0.0273748
0.0269026
0.0264368
0.0259778
0.0255255
0.0250801
0.0246416
0.02421
0.0237854
0.0233678
0.0229572
0.0225536
0.022157
0.0217673
0.0213845
0.0210086
0.0206396
0.0202772
0.0199216
0.0195726
0.0192301
0.0188941
0.0185644
0.0182411
0.0179239
0.0176127
0.0173076
0.0170084
0.016715
0.0164272
0.0161451
0.0158685
0.0155973
0.0153315
0.0150709
0.0148154
0.014565
0.0143195
0.014079
0.0138432
0.0136122
0.0133858
0.013164
0.0129467
0.0127338
0.0125252
0.0123211
0.0121213
0.0119258
0.0117344
0.0115473
0.0113645
0.0111861
0.0110122
0.0108432
0.0106793
0.0105216
0.0103692
0.0102307
0.0100686
0.00312438
0.00361008
0.00463642
0.00545452
0.00611875
0.00669131
0.00720896
0.00769552
0.00816754
0.00863695
0.00911251
0.0096007
0.0101062
0.0106323
0.0111809
0.0117533
0.0123502
0.0129719
0.0136183
0.0142893
0.0149845
0.0157035
0.0164457
0.0172106
0.0179977
0.0188063
0.0196356
0.0204849
0.0213534
0.02224
0.0231439
0.0240638
0.0249985
0.0259465
0.026906
0.0278755
0.0288528
0.029836
0.0308227
0.0318107
0.0327975
0.0337806
0.0347573
0.0357251
0.0366812
0.037623
0.0385478
0.0394531
0.0403363
0.041195
0.0420268
0.0428296
0.0436013
0.04434
0.0450439
0.0457114
0.0463412
0.0469319
0.0474825
0.0479922
0.0484602
0.048886
0.0492693
0.0496098
0.0499075
0.0501626
0.0503752
0.0505458
0.050675
0.0507633
0.0508115
0.0508206
0.0507916
0.050725
0.0506222
0.0504845
0.0503132
0.0501095
0.0498748
0.0496104
0.0493178
0.0489983
0.0486535
0.0482847
0.0478933
0.0474809
0.0470489
0.0465986
0.0461315
0.045649
0.0451526
0.0446436
0.0441234
0.0435933
0.0430545
0.0425081
0.0419552
0.0413967
0.0408335
0.0402664
0.0396964
0.0391242
0.0385507
0.0379765
0.0374023
0.036829
0.036257
0.035687
0.0351197
0.0345554
0.0339948
0.0334382
0.0328861
0.0323389
0.0317969
0.0312605
0.0307299
0.0302054
0.0296873
0.0291757
0.0286708
0.0281728
0.0276819
0.0271981
0.0267215
0.0262523
0.0257904
0.025336
0.024889
0.0244494
0.0240174
0.0235927
0.0231755
0.0227656
0.0223631
0.0219679
0.0215798
0.021199
0.0208252
0.0204584
0.0200985
0.0197454
0.0193991
0.0190594
0.0187262
0.0183994
0.0180789
0.0177646
0.0174565
0.0171543
0.016858
0.0165675
0.0162827
0.0160035
0.0157298
0.0154615
0.0151984
0.0149406
0.0146879
0.0144401
0.0141973
0.0139594
0.0137263
0.0134978
0.013274
0.0130547
0.01284
0.0126298
0.012424
0.0122227
0.0120259
0.0118336
0.011646
0.0114631
0.0112853
0.0111129
0.0109466
0.0107863
0.0106369
0.0104712
0.00363638
0.00381649
0.0048413
0.00568366
0.00636738
0.00695565
0.00748694
0.00798571
0.00846913
0.00894964
0.0094365
0.00993649
0.0104543
0.0109934
0.0115559
0.0121432
0.0127564
0.0133958
0.0140616
0.0147538
0.0154723
0.0162168
0.0169872
0.017783
0.0186037
0.0194487
0.0203175
0.0212094
0.0221235
0.023059
0.0240146
0.024989
0.0259806
0.0269877
0.0280083
0.0290403
0.0300813
0.031129
0.0321807
0.0332336
0.0342849
0.0353318
0.0363712
0.0374002
0.0384159
0.0394152
0.0403954
0.0413535
0.042287
0.0431932
0.0440697
0.0449143
0.0457247
0.0464991
0.0472358
0.0479331
0.0485897
0.0492043
0.049776
0.050304
0.0507877
0.0512266
0.0516204
0.051969
0.0522726
0.0525312
0.0527453
0.0529154
0.0530422
0.0531263
0.0531686
0.05317
0.0531322
0.0530547
0.0529397
0.0527884
0.0526023
0.0523827
0.0521309
0.0518484
0.0515367
0.0511973
0.0508316
0.0504411
0.0500273
0.0495917
0.0491358
0.048661
0.0481688
0.0476607
0.047138
0.0466022
0.0460546
0.0454967
0.0449297
0.0443547
0.0437729
0.0431854
0.042593
0.0419968
0.0413976
0.0407963
0.0401937
0.0395906
0.0389878
0.0383859
0.0377857
0.0371877
0.0365925
0.0360008
0.0354129
0.0348295
0.0342508
0.0336774
0.0331096
0.0325478
0.0319921
0.031443
0.0309006
0.0303651
0.0298368
0.0293158
0.0288023
0.0282963
0.0277979
0.0273074
0.0268246
0.0263496
0.0258825
0.0254232
0.0249718
0.0245283
0.0240925
0.0236646
0.0232443
0.0228317
0.0224267
0.0220292
0.0216391
0.0212563
0.0208808
0.0205124
0.0201511
0.0197967
0.0194491
0.0191082
0.0187739
0.0184462
0.0181247
0.0178096
0.0175006
0.0171976
0.0169006
0.0166094
0.0163239
0.016044
0.0157696
0.0155007
0.015237
0.0149786
0.0147253
0.014477
0.0142337
0.0139953
0.0137617
0.0135328
0.0133087
0.0130892
0.0128743
0.0126641
0.0124585
0.0122576
0.0120615
0.0118705
0.0116847
0.0115044
0.0113303
0.0111624
0.0110036
0.0108337
0.00407704
0.00394495
0.00494817
0.00580529
0.0065035
0.00710472
0.00764844
0.00815955
0.00865545
0.00914874
0.00964856
0.0101617
0.0106931
0.0112465
0.0118244
0.0124284
0.0130596
0.013719
0.0144068
0.0151234
0.0158689
0.0166432
0.0174462
0.0182776
0.0191371
0.0200243
0.0209387
0.0218794
0.0228457
0.0238362
0.0248495
0.025884
0.0269377
0.0280085
0.029094
0.0301916
0.0312987
0.0324122
0.0335291
0.0346463
0.0357606
0.0368686
0.0379672
0.039053
0.0401228
0.0411735
0.042202
0.0432055
0.0441811
0.0451263
0.0460385
0.0469155
0.0477553
0.048556
0.0493158
0.0500334
0.0507074
0.0513368
0.0519207
0.0524583
0.0529493
0.0533933
0.0537901
0.0541398
0.0544425
0.0546986
0.0549085
0.0550729
0.0551925
0.0552681
0.0553007
0.0552915
0.0552418
0.0551511
0.055022
0.0548557
0.0546538
0.0544175
0.0541484
0.0538479
0.0535175
0.0531587
0.0527731
0.0523621
0.0519274
0.0514703
0.0509925
0.0504954
0.0499804
0.0494491
0.0489029
0.0483432
0.0477715
0.047189
0.0465971
0.045997
0.0453899
0.0447769
0.044159
0.0435372
0.0429125
0.0422857
0.0416577
0.0410294
0.0404014
0.0397746
0.0391495
0.0385269
0.0379074
0.0372916
0.0366799
0.0360728
0.0354709
0.0348745
0.0342839
0.0336997
0.033122
0.0325511
0.0319873
0.0314308
0.0308818
0.0303404
0.0298069
0.0292813
0.0287637
0.0282542
0.0277528
0.0272597
0.0267747
0.026298
0.0258295
0.0253691
0.0249169
0.0244728
0.0240368
0.0236087
0.0231886
0.0227762
0.0223716
0.0219746
0.0215852
0.0212031
0.0208284
0.0204609
0.0201005
0.019747
0.0194004
0.0190605
0.0187273
0.0184005
0.0180802
0.017766
0.0174581
0.0171561
0.0168601
0.0165699
0.0162854
0.0160065
0.015733
0.015465
0.0152023
0.0149448
0.0146924
0.0144451
0.0142027
0.0139653
0.0137327
0.0135049
0.0132819
0.0130637
0.0128503
0.0126417
0.0124381
0.0122396
0.0120465
0.011859
0.0116776
0.0115027
0.0113357
0.0111612
0.00442271
0.00399654
0.00496075
0.00582812
0.00654024
0.00715489
0.00771216
0.00823724
0.00874739
0.00925528
0.0097702
0.0102991
0.0108473
0.0114185
0.0120155
0.0126404
0.0132947
0.0139795
0.0146954
0.015443
0.0162225
0.017034
0.0178776
0.0187531
0.0196605
0.0205991
0.0215684
0.0225673
0.0235946
0.0246486
0.0257275
0.0268291
0.027951
0.0290906
0.0302449
0.0314109
0.0325851
0.0337644
0.034945
0.0361236
0.0372965
0.0384601
0.0396109
0.0407455
0.0418605
0.0429527
0.044019
0.0450565
0.0460625
0.0470345
0.04797
0.0488669
0.0497234
0.0505377
0.0513083
0.052034
0.0527135
0.0533461
0.053931
0.0544677
0.0549559
0.0553954
0.0557863
0.0561286
0.0564227
0.0566691
0.0568682
0.057021
0.0571281
0.0571904
0.057209
0.057186
0.0571207
0.0570143
0.056869
0.0566862
0.0564673
0.0562137
0.0559269
0.0556085
0.0552598
0.0548825
0.054478
0.054048
0.0535939
0.0531174
0.0526198
0.0521026
0.0515675
0.0510158
0.050449
0.0498686
0.0492758
0.0486722
0.0480589
0.0474373
0.0468086
0.0461739
0.0455342
0.0448907
0.0442442
0.0435957
0.0429461
0.0422962
0.0416469
0.0409987
0.0403525
0.039709
0.0390686
0.0384321
0.0378
0.0371727
0.0365508
0.0359346
0.0353246
0.0347211
0.0341244
0.0335347
0.0329525
0.0323778
0.0318109
0.0312519
0.0307011
0.0301584
0.0296241
0.0290982
0.0285807
0.0280717
0.0275712
0.0270792
0.0265957
0.0261207
0.0256541
0.025196
0.0247461
0.0243044
0.023871
0.0234456
0.0230282
0.0226187
0.022217
0.0218229
0.0214364
0.0210573
0.0206856
0.020321
0.0199635
0.0196129
0.0192692
0.0189321
0.0186017
0.0182777
0.01796
0.0176485
0.0173431
0.0170437
0.0167502
0.0164624
0.0161803
0.0159038
0.0156326
0.0153669
0.0151064
0.0148512
0.014601
0.0143559
0.0141158
0.0138806
0.0136504
0.0134251
0.0132047
0.0129893
0.012779
0.0125738
0.0123742
0.0121802
0.0119923
0.0118108
0.0116364
0.0114573
0.0046676
0.00399366
0.00492571
0.00579503
0.00651336
0.00713582
0.00770301
0.00824091
0.00876737
0.00929329
0.00982716
0.0103764
0.0109466
0.0115418
0.0121653
0.0128194
0.0135058
0.0142258
0.0149803
0.01577
0.0165953
0.0174567
0.0183541
0.0192877
0.0202568
0.0212608
0.0222986
0.0233685
0.0244688
0.0255973
0.0267514
0.0279283
0.0291249
0.0303379
0.0315636
0.0327985
0.0340387
0.0352803
0.0365194
0.0377523
0.038975
0.0401839
0.0413753
0.0425458
0.043692
0.0448109
0.0458994
0.046955
0.047975
0.0489571
0.0498993
0.0507997
0.0516566
0.0524686
0.0532345
0.0539531
0.0546237
0.0552456
0.0558183
0.0563415
0.0568151
0.0572391
0.0576137
0.057939
0.0582157
0.0584443
0.0586254
0.0587598
0.0588485
0.0588925
0.0588926
0.0588519
0.0587672
0.0586424
0.0584788
0.0582777
0.0580407
0.0577691
0.0574645
0.0571282
0.0567618
0.0563668
0.0559448
0.0554972
0.0550256
0.0545315
0.0540165
0.0534819
0.0529294
0.0523602
0.051776
0.051178
0.0505676
0.0499463
0.0493154
0.048676
0.0480295
0.0473769
0.0467194
0.046058
0.0453937
0.0447275
0.0440601
0.0433926
0.0427256
0.0420599
0.0413964
0.0407355
0.040078
0.0394245
0.0387755
0.0381315
0.037493
0.0368604
0.0362342
0.0356146
0.0350021
0.0343968
0.0337991
0.0332091
0.0326272
0.0320535
0.031488
0.030931
0.0303826
0.0298427
0.0293115
0.0287891
0.0282754
0.0277704
0.0272742
0.0267866
0.0263077
0.0258375
0.0253757
0.0249224
0.0244775
0.0240409
0.0236125
0.0231922
0.0227799
0.0223754
0.0219786
0.0215895
0.0212079
0.0208337
0.0204667
0.0201068
0.0197539
0.0194079
0.0190686
0.0187359
0.0184097
0.0180899
0.0177763
0.0174688
0.0171673
0.0168718
0.016582
0.0162979
0.0160194
0.0157464
0.0154788
0.0152165
0.0149595
0.0147076
0.0144608
0.0142191
0.0139825
0.0137508
0.0135243
0.0133028
0.0130865
0.0128754
0.0126699
0.0124701
0.0122763
0.0120889
0.0119081
0.0117246
0.0048124
0.00395742
0.0048422
0.0057105
0.00643732
0.0070714
0.00765265
0.00820632
0.0087492
0.00929452
0.00985215
0.0104289
0.0110302
0.0116604
0.0123226
0.0130194
0.0137527
0.014524
0.0153346
0.0161851
0.0170762
0.018008
0.0189805
0.019993
0.0210445
0.0221336
0.0232583
0.0244162
0.0256045
0.0268202
0.0280597
0.0293193
0.0305952
0.0318832
0.0331792
0.034479
0.0357782
0.0370729
0.0383588
0.0396321
0.040889
0.0421258
0.0433391
0.0445257
0.0456825
0.0468069
0.0478962
0.048948
0.0499604
0.0509313
0.051859
0.0527422
0.0535795
0.0543698
0.0551122
0.0558061
0.0564507
0.0570459
0.0575913
0.0580868
0.0585325
0.0589286
0.0592754
0.0595733
0.059823
0.060025
0.0601801
0.0602891
0.0603531
0.0603728
0.0603509