/*--------------------------------*- C++ -*----------------------------------*\
| =========                 |                                                 |
| \\      /  F ield         | OpenFOAM: The Open Source CFD Toolbox           |
|  \\    /   O peration     | Version:  2112                                  |
|   \\  /    A nd           | Website:  www.openfoam.com                      |
|    \\/     M anipulation  |                                                 |
\*---------------------------------------------------------------------------*/
FoamFile
{
    version     2.0;
    format      ascii;
    arch        "LSB;label=32;scalar=64";
    class       volScalarField;
    location    "237";
    object      nut;
}
// * * * * * * * * * * * * * * * * * * * * * * * * * * * * * * * * * * * * * //

dimensions      [0 2 -1 0 0 0 0];

internalField   nonuniform List<scalar> 
12225
(
1.57487e-05
1.07746e-05
9.97939e-06
9.62369e-06
9.41046e-06
9.25849e-06
9.13922e-06
9.04041e-06
8.95577e-06
8.88187e-06
8.81695e-06
8.76033e-06
8.71229e-06
8.67424e-06
8.64928e-06
8.64977e-06
8.68181e-06
8.77595e-06
0.000127891
9.26323e-05
8.31768e-05
7.56476e-05
6.9613e-05
6.46046e-05
6.03621e-05
5.67136e-05
5.35408e-05
5.0758e-05
4.83002e-05
4.61169e-05
4.4168e-05
4.24213e-05
4.08581e-05
3.9442e-05
3.81393e-05
3.73952e-05
0.000295862
0.000209486
0.000188694
0.000174262
0.000162749
0.000153062
0.000144704
0.000137383
0.000130907
0.000125137
0.000119971
0.00011533
0.000111154
0.0001074
0.000104061
0.000101118
9.8688e-05
9.69924e-05
0.000457036
0.00032902
0.000295142
0.000274659
0.000259009
0.000245946
0.00023463
0.000224641
0.000215726
0.000207714
0.000200484
0.000193943
0.000188027
0.000182695
0.000177952
0.00017382
0.000170495
0.000167912
0.000587638
0.000441096
0.000395584
0.00036963
0.000350599
0.000334985
0.000321512
0.000309598
0.000298921
0.000289279
0.000280532
0.00027258
0.000265357
0.000258823
0.000252988
0.000247892
0.000243711
0.000240368
0.000683914
0.000540586
0.000487512
0.000457057
0.000435262
0.000417667
0.000402594
0.000389289
0.000377352
0.00036654
0.000356698
0.000347716
0.000339525
0.000332084
0.000325398
0.000319506
0.000314528
0.000310421
0.000750131
0.000625041
0.000569419
0.000536017
0.000512169
0.000493096
0.000476866
0.000462584
0.000449773
0.000438153
0.000427548
0.00041784
0.000408953
0.000400845
0.000393509
0.000386972
0.000381303
0.000376467
0.000792502
0.000694443
0.000640292
0.000605902
0.000580919
0.000560923
0.000543985
0.000529092
0.000515722
0.000503575
0.000492465
0.000482277
0.000472922
0.000464349
0.00045654
0.000449506
0.000443274
0.000437808
0.000819236
0.000747535
0.000699434
0.000666245
0.000641273
0.0006211
0.000603902
0.000588748
0.000575123
0.00056272
0.000551349
0.000540882
0.000531237
0.00052236
0.000514226
0.00050683
0.000500172
0.000494207
0.00083531
0.000786299
0.000746828
0.000716794
0.00069307
0.000673411
0.000656453
0.000641413
0.000627832
0.000615427
0.000604017
0.000593481
0.000583738
0.000574734
0.000566437
0.00055883
0.000551898
0.000545591
0.000844419
0.000813152
0.000783075
0.000757592
0.000736181
0.000717794
0.000701609
0.000687079
0.000673853
0.000661703
0.000650475
0.000640063
0.000630394
0.000621419
0.000613104
0.000605426
0.000598359
0.000591855
0.000848779
0.000829148
0.000807087
0.000786391
0.000767831
0.000751228
0.000736232
0.000722541
0.000709937
0.000698262
0.000687404
0.000677282
0.000667837
0.000659028
0.000650825
0.000643204
0.000636136
0.000629576
0.000850977
0.000839412
0.000824209
0.000808283
0.000792908
0.000778471
0.000765003
0.000752436
0.000740691
0.000729691
0.000719372
0.000709686
0.000700595
0.000692069
0.000684084
0.00067662
0.000669649
0.000663132
0.000851841
0.000845741
0.000836452
0.000825441
0.000813813
0.000802129
0.000790715
0.000779746
0.000769266
0.000759285
0.000749794
0.000740791
0.000732267
0.000724209
0.000716605
0.000709442
0.000702699
0.000696346
0.000851768
0.000848451
0.000843293
0.000836497
0.000828608
0.000820104
0.000811312
0.000802426
0.00079362
0.000785017
0.000776682
0.000768659
0.000760964
0.000753603
0.000746578
0.000739891
0.000733535
0.000727495
0.000851215
0.000848523
0.000845436
0.000841481
0.000836603
0.000831005
0.000824877
0.000818379
0.000811662
0.000804832
0.000798002
0.000791246
0.000784618
0.000778161
0.000771907
0.000765871
0.000760062
0.000754483
0.000850591
0.000847331
0.000844622
0.000841953
0.000838963
0.000835489
0.00083151
0.000827085
0.000822297
0.000817234
0.000811977
0.000806598
0.000801167
0.000795739
0.000790361
0.000785069
0.000779891
0.00077485
0.000850207
0.000846296
0.000843276
0.000840789
0.000838447
0.000835967
0.000833181
0.000830015
0.000826458
0.000822547
0.000818342
0.000813908
0.000809309
0.00080461
0.000799862
0.000795108
0.000790383
0.00078571
0.000850315
0.000846553
0.000843574
0.000841012
0.000838495
0.000835783
0.000832733
0.000829298
0.000825482
0.00082133
0.000816906
0.000812275
0.000807498
0.00080263
0.000797723
0.000792818
0.000787953
0.000783161
0.000850997
0.000848079
0.000845098
0.000841602
0.000837404
0.000832549
0.000827189
0.00082145
0.000815445
0.000809269
0.000802992
0.000796678
0.00079039
0.000784175
0.000778068
0.000772098
0.000766285
0.000760647
0.000851696
0.000848092
0.000842723
0.00083585
0.000827995
0.000819609
0.000810945
0.000802167
0.000793436
0.000784852
0.000776477
0.00076834
0.000760471
0.000752888
0.000745595
0.000738591
0.000731876
0.000725453
0.000851316
0.000842292
0.000830041
0.000816634
0.000803222
0.000790198
0.000777705
0.000765822
0.000754557
0.000743879
0.000733762
0.000724181
0.000715092
0.000706456
0.000698249
0.000690451
0.000683045
0.000676021
0.000847116
0.000823679
0.000799265
0.000777181
0.000757725
0.000740504
0.000725064
0.000711022
0.000698085
0.000686073
0.000674862
0.000664362
0.000654498
0.000645212
0.000636455
0.000628189
0.000620386
0.000613029
0.000833537
0.000783272
0.000743698
0.00071369
0.00069006
0.000670454
0.000653501
0.000638414
0.000624721
0.000612139
0.000600486
0.000589638
0.000579503
0.000570008
0.000561095
0.000552719
0.000544844
0.000537455
0.00080052
0.000711973
0.000660153
0.000626307
0.000601391
0.000581438
0.00056443
0.000549389
0.000535798
0.000523356
0.000511874
0.000501223
0.000491307
0.000482052
0.000473396
0.000465289
0.000457695
0.000450605
0.000732543
0.000603593
0.000549679
0.000517546
0.000494501
0.000475916
0.000460003
0.000445912
0.00043319
0.00042157
0.000410879
0.000400994
0.000391825
0.000383298
0.000375353
0.000367937
0.000361015
0.00035459
0.00060651
0.000463028
0.000417598
0.00039149
0.000372285
0.00035643
0.000342658
0.000330394
0.000319318
0.000309228
0.000299985
0.000291482
0.000283636
0.00027638
0.000269655
0.00026341
0.000257607
0.000252267
0.000412935
0.00029932
0.000271233
0.000253183
0.000238955
0.000226898
0.000216352
0.000206978
0.000198564
0.000190961
0.000184054
0.000177756
0.000171994
0.000166708
0.000161849
0.000157369
0.000153233
0.000149469
0.000181852
0.000133348
0.00012206
0.000112578
0.000104808
9.82482e-05
9.25856e-05
8.7635e-05
8.32667e-05
7.93836e-05
7.59114e-05
7.27916e-05
6.99767e-05
6.74277e-05
6.51124e-05
6.30022e-05
6.10716e-05
5.93394e-05
2.15717e-05
1.47132e-05
1.3537e-05
1.30037e-05
1.26686e-05
1.24204e-05
1.22208e-05
1.20522e-05
1.1905e-05
1.17734e-05
1.16541e-05
1.15445e-05
1.14429e-05
1.13481e-05
1.12592e-05
1.11757e-05
1.10962e-05
1.10223e-05
1.09101e-06
2.61352e-06
2.93182e-06
3.24225e-06
3.50897e-06
3.72213e-06
3.88833e-06
4.01479e-06
4.11036e-06
4.18846e-06
4.27102e-06
4.39956e-06
4.62309e-06
4.90682e-06
5.22427e-06
5.56549e-06
5.92696e-06
6.3067e-06
6.70249e-06
7.11143e-06
7.53022e-06
7.95503e-06
8.38176e-06
8.80629e-06
9.22498e-06
9.63451e-06
1.00323e-05
1.0416e-05
1.07841e-05
1.11355e-05
1.14695e-05
1.17859e-05
1.20843e-05
1.23646e-05
1.26272e-05
1.28725e-05
1.31012e-05
1.33136e-05
1.35105e-05
1.36923e-05
1.38598e-05
1.40134e-05
1.41535e-05
1.42806e-05
1.43952e-05
1.44974e-05
1.45878e-05
1.46669e-05
1.47354e-05
1.4795e-05
1.48459e-05
1.48882e-05
1.49225e-05
1.4949e-05
1.4968e-05
1.49797e-05
1.49896e-05
1.49718e-05
1.49765e-05
1.49557e-05
1.49341e-05
1.49051e-05
1.487e-05
1.48289e-05
1.47819e-05
1.47291e-05
1.46707e-05
1.46068e-05
1.45373e-05
1.44623e-05
1.4382e-05
1.42975e-05
1.42082e-05
1.41142e-05
1.40158e-05
1.39132e-05
1.38064e-05
1.36958e-05
1.35814e-05
1.34635e-05
1.33422e-05
1.32178e-05
1.30903e-05
1.296e-05
1.28271e-05
1.26919e-05
1.25544e-05
1.24149e-05
1.22739e-05
1.21318e-05
1.19898e-05
1.18521e-05
1.17424e-05
1.17019e-05
1.16892e-05
1.16814e-05
1.16736e-05
1.16648e-05
1.16545e-05
1.16432e-05
1.16311e-05
1.16176e-05
1.16031e-05
1.15876e-05
1.15711e-05
1.15536e-05
1.15352e-05
1.15161e-05
1.14963e-05
1.14758e-05
1.14546e-05
1.14328e-05
1.14104e-05
1.13873e-05
1.13637e-05
1.13395e-05
1.13148e-05
1.12894e-05
1.12636e-05
1.12372e-05
1.12102e-05
1.11828e-05
1.11548e-05
1.11263e-05
1.10973e-05
1.10678e-05
1.10378e-05
1.10072e-05
1.09761e-05
1.09445e-05
1.09124e-05
1.08798e-05
1.08467e-05
1.08131e-05
1.0779e-05
1.07445e-05
1.07094e-05
1.0674e-05
1.0638e-05
1.06017e-05
1.05648e-05
1.05276e-05
1.04899e-05
1.04517e-05
1.04128e-05
1.03735e-05
1.03337e-05
1.02936e-05
1.02532e-05
1.02126e-05
1.01717e-05
1.01306e-05
1.00894e-05
1.0048e-05
1.00065e-05
9.96481e-06
9.92298e-06
9.88102e-06
9.83892e-06
9.79665e-06
9.75421e-06
9.71159e-06
9.66876e-06
9.62567e-06
9.58227e-06
9.53846e-06
9.49413e-06
9.44911e-06
9.40317e-06
9.35602e-06
9.30724e-06
9.25626e-06
9.20232e-06
9.14412e-06
9.08084e-06
9.00721e-06
8.92859e-06
8.81242e-06
8.71453e-06
8.41069e-06
1.46675e-06
3.3155e-06
7.09859e-06
1.11239e-05
1.42644e-05
1.64135e-05
1.78643e-05
1.88997e-05
1.97049e-05
2.03504e-05
2.08445e-05
2.11813e-05
2.13895e-05
2.15468e-05
2.17139e-05
2.19262e-05
2.22026e-05
2.2552e-05
2.29741e-05
2.346e-05
2.40274e-05
2.47018e-05
2.54851e-05
2.63767e-05
2.73757e-05
2.84808e-05
2.96902e-05
3.1005e-05
3.24218e-05
3.39341e-05
3.55384e-05
3.72303e-05
3.90055e-05
4.08583e-05
4.27825e-05
4.47716e-05
4.6819e-05
4.89174e-05
5.10601e-05
5.32397e-05
5.54496e-05
5.76823e-05
5.99308e-05
6.21868e-05
6.44414e-05
6.66779e-05
6.88786e-05
7.10171e-05
7.30458e-05
7.48906e-05
7.66533e-05
7.8386e-05
8.00859e-05
8.17511e-05
8.33801e-05
8.49708e-05
8.65216e-05
8.80137e-05
8.94799e-05
9.08871e-05
9.2253e-05
9.35675e-05
9.48299e-05
9.605e-05
9.72234e-05
9.83434e-05
9.94121e-05
0.000100432
0.000101405
0.000102308
0.00010314
0.000103948
0.000104703
0.000105409
0.000106066
0.000106675
0.000107238
0.000107756
0.000108229
0.000108659
0.000109047
0.000109394
0.000109702
0.000109971
0.000110202
0.000110396
0.000110552
0.000110669
0.000110743
0.000110761
0.00011069
0.000110431
0.00010976
0.00010859
0.000107144
0.000105571
0.000103937
0.00010227
0.000100583
9.88835e-05
9.71776e-05
9.54679e-05
9.37568e-05
9.20472e-05
9.03415e-05
8.86415e-05
8.69493e-05
8.52659e-05
8.35931e-05
8.19327e-05
8.02861e-05
7.86548e-05
7.704e-05
7.54429e-05
7.38647e-05
7.23066e-05
7.07692e-05
6.92536e-05
6.77606e-05
6.62911e-05
6.48451e-05
6.34237e-05
6.20275e-05
6.06571e-05
5.93128e-05
5.79952e-05
5.67045e-05
5.54406e-05
5.42035e-05
5.29934e-05
5.18104e-05
5.06551e-05
4.95275e-05
4.84273e-05
4.73541e-05
4.63076e-05
4.52873e-05
4.42928e-05
4.33239e-05
4.23803e-05
4.14609e-05
4.05681e-05
3.96903e-05
3.88302e-05
3.79921e-05
3.71773e-05
3.63857e-05
3.5617e-05
3.48702e-05
3.41456e-05
3.34422e-05
3.27592e-05
3.2096e-05
3.14518e-05
3.0826e-05
3.02179e-05
2.9627e-05
2.90528e-05
2.84942e-05
2.79506e-05
2.74219e-05
2.69077e-05
2.64076e-05
2.59209e-05
2.54473e-05
2.49863e-05
2.45373e-05
2.40998e-05
2.36734e-05
2.32576e-05
2.28515e-05
2.24552e-05
2.20663e-05
2.16869e-05
2.13111e-05
2.09415e-05
2.05789e-05
2.01753e-05
1.98992e-05
1.88577e-05
1.80346e-06
5.2107e-06
1.26089e-05
2.05154e-05
2.68044e-05
3.13323e-05
3.45001e-05
3.6749e-05
3.84125e-05
3.97036e-05
4.0749e-05
4.16325e-05
4.24281e-05
4.32123e-05
4.40519e-05
4.5e-05
4.60999e-05
4.73898e-05
4.89066e-05
5.06912e-05
5.27392e-05
5.50276e-05
5.75535e-05
6.03141e-05
6.33044e-05
6.65166e-05
6.99404e-05
7.35637e-05
7.73715e-05
8.13465e-05
8.54712e-05
8.97274e-05
9.40966e-05
9.85605e-05
0.000103101
0.0001077
0.000112342
0.00011701
0.00012169
0.000126367
0.000131028
0.00013566
0.000140247
0.000144776
0.000149231
0.000153593
0.000157842
0.000161944
0.000165882
0.000169664
0.000173327
0.000176891
0.000180355
0.000183718
0.000186975
0.000190123
0.000193158
0.000196073
0.000198877
0.000201557
0.000204118
0.000206555
0.000208868
0.00021106
0.000213119
0.000215082
0.000216913
0.000218633
0.000220222
0.000221688
0.000222998
0.000224196
0.000225293
0.000226276
0.000227146
0.000227907
0.000228561
0.00022911
0.000229558
0.000229908
0.000230162
0.000230323
0.000230395
0.000230378
0.000230276
0.000230089
0.000229819
0.000229461
0.000229007
0.000228438
0.000227709
0.000226727
0.00022535
0.000223513
0.000221328
0.000218916
0.000216359
0.000213703
0.000210974
0.000208192
0.000205366
0.000202505
0.000199615
0.000196702
0.00019377
0.000190823
0.000187865
0.000184899
0.000181931
0.000178962
0.000175996
0.000173037
0.000170086
0.000167146
0.000164221
0.000161311
0.00015842
0.00015555
0.000152703
0.00014988
0.000147083
0.000144315
0.000141576
0.000138869
0.000136195
0.000133556
0.000130952
0.000128383
0.000125849
0.000123354
0.000120897
0.000118482
0.000116108
0.000113777
0.000111487
0.000109238
0.000107031
0.000104864
0.00010274
0.000100656
9.8614e-05
9.66156e-05
9.46542e-05
9.27282e-05
9.084e-05
8.89913e-05
8.71826e-05
8.54138e-05
8.36846e-05
8.19922e-05
8.03374e-05
7.87197e-05
7.71385e-05
7.5593e-05
7.40825e-05
7.2606e-05
7.11631e-05
6.97529e-05
6.83759e-05
6.70313e-05
6.57178e-05
6.44345e-05
6.31805e-05
6.19548e-05
6.07566e-05
5.95845e-05
5.84374e-05
5.7314e-05
5.62129e-05
5.51325e-05
5.407e-05
5.30247e-05
5.1989e-05
5.09676e-05
4.99369e-05
4.89154e-05
4.78623e-05
4.67232e-05
4.58476e-05
4.26226e-05
1.99562e-06
7.74179e-06
1.86492e-05
2.93476e-05
3.77111e-05
4.37691e-05
4.81055e-05
5.12809e-05
5.37315e-05
5.57677e-05
5.76011e-05
5.93761e-05
6.11974e-05
6.31457e-05
6.5285e-05
6.76661e-05
7.03288e-05
7.33038e-05
7.66121e-05
8.0263e-05
8.4254e-05
8.85702e-05
9.31977e-05
9.81202e-05
0.000103318
0.00010877
0.000114451
0.000120335
0.000126397
0.000132608
0.000138944
0.000145379
0.000151888
0.000158449
0.00016504
0.000171641
0.000178235
0.000184803
0.000191329
0.000197799
0.000204197
0.000210509
0.00021672
0.000222817
0.000228784
0.000234608
0.000240269
0.000245754
0.000251066
0.000256209
0.000261196
0.000266031
0.000270713
0.000275241
0.000279609
0.000283814
0.000287853
0.000291723
0.000295421
0.000298946
0.000302295
0.000305467
0.000308461
0.000311278
0.000313914
0.000316376
0.000318688
0.000320825
0.000322783
0.000324562
0.000326137
0.000327541
0.000328799
0.000329894
0.00033083
0.00033161
0.000332237
0.000332715
0.000333048
0.000333241
0.000333296
0.000333218
0.000333011
0.000332679
0.000332224
0.000331648
0.000330951
0.000330132
0.000329181
0.000328082
0.0003268
0.000325278
0.000323448
0.000321274
0.000318797
0.00031608
0.000313179
0.000310136
0.000306981
0.000303734
0.00030041
0.000297019
0.000293571
0.000290073
0.000286531
0.000282947
0.00027933
0.000275687
0.000272021
0.000268337
0.000264639
0.00026093
0.000257216
0.000253498
0.000249781
0.000246068
0.000242361
0.000238664
0.000234979
0.00023131
0.00022766
0.000224031
0.000220425
0.000216845
0.000213292
0.00020977
0.000206279
0.000202821
0.000199397
0.000196009
0.000192658
0.000189347
0.000186078
0.00018285
0.000179665
0.000176521
0.000173418
0.00017036
0.000167345
0.000164375
0.00016145
0.000158575
0.000155743
0.000152955
0.000150209
0.000147507
0.00014485
0.000142239
0.000139672
0.000137151
0.000134675
0.000132243
0.000129854
0.000127509
0.000125205
0.000122943
0.000120722
0.000118542
0.000116403
0.000114303
0.000112241
0.000110218
0.000108232
0.000106281
0.000104366
0.000102483
0.000100632
9.88106e-05
9.70167e-05
9.52477e-05
9.34994e-05
9.17695e-05
9.00472e-05
8.83363e-05
8.66032e-05
8.48706e-05
8.30728e-05
8.1156e-05
7.95027e-05
7.47356e-05
2.08103e-06
1.06274e-05
2.46226e-05
3.75052e-05
4.7575e-05
5.50363e-05
6.05602e-05
6.47746e-05
6.81832e-05
7.11611e-05
7.39756e-05
7.68116e-05
7.97969e-05
8.30209e-05
8.6546e-05
9.04157e-05
9.46582e-05
9.92884e-05
0.000104313
0.000109707
0.000115476
0.000121591
0.000128026
0.000134751
0.000141736
0.000148949
0.00015636
0.000163936
0.000171648
0.000179464
0.000187359
0.000195305
0.000203279
0.000211257
0.00021922
0.000227149
0.000235027
0.000242838
0.000250567
0.0002582
0.000265723
0.000273124
0.000280391
0.000287509
0.000294466
0.000301249
0.00030785
0.000314271
0.000320511
0.000326572
0.000332456
0.00033816
0.000343684
0.000349022
0.00035417
0.000359125
0.000363883
0.000368439
0.000372791
0.000376937
0.000380873
0.000384599
0.000388113
0.000391414
0.000394501
0.000397376
0.000400054
0.000402552
0.000404813
0.000406866
0.000408684
0.000410296
0.000411725
0.000412957
0.000413996
0.000414845
0.000415508
0.00041599
0.000416295
0.000416428
0.000416393
0.000416195
0.000415838
0.000415327
0.000414665
0.000413855
0.000412898
0.000411792
0.000410532
0.000409107
0.000407493
0.000405661
0.000403577
0.000401223
0.000398613
0.000395777
0.000392751
0.000389566
0.000386245
0.000382809
0.000379273
0.000375648
0.000371944
0.000368171
0.000364338
0.000360464
0.000356545
0.000352581
0.000348579
0.000344541
0.000340473
0.000336378
0.000332263
0.00032813
0.000323984
0.000319828
0.000315666
0.000311498
0.000307332
0.000303172
0.00029902
0.000294878
0.000290751
0.000286641
0.000282549
0.00027848
0.000274434
0.000270413
0.00026642
0.000262457
0.000258526
0.000254629
0.000250767
0.000246943
0.000243157
0.00023941
0.000235701
0.000232033
0.000228406
0.000224822
0.00022128
0.000217783
0.000214327
0.000210914
0.000207543
0.000204215
0.000200931
0.000197692
0.000194497
0.000191351
0.000188251
0.000185197
0.000182187
0.000179221
0.000176299
0.000173419
0.000170585
0.000167793
0.000165044
0.000162337
0.000159671
0.000157045
0.000154458
0.000151911
0.0001494
0.000146925
0.000144483
0.000142073
0.000139692
0.000137336
0.000135
0.000132681
0.000130367
0.000128057
0.000125718
0.000123363
0.00012093
0.000118332
0.000115937
0.000110261
2.26887e-06
1.25454e-05
2.90434e-05
4.41097e-05
5.60673e-05
6.5114e-05
7.19958e-05
7.74098e-05
8.19226e-05
8.59651e-05
8.985e-05
9.37957e-05
9.79498e-05
0.000102409
0.000107233
0.000112457
0.000118097
0.000124137
0.000130557
0.000137415
0.000144614
0.000152133
0.00015994
0.000168001
0.000176281
0.000184744
0.000193358
0.000202089
0.000210907
0.000219784
0.000228692
0.00023761
0.000246515
0.000255385
0.000264199
0.000272947
0.000281615
0.000290188
0.000298653
0.000307
0.000315217
0.000323294
0.000331221
0.000338989
0.000346585
0.000354001
0.000361236
0.000368288
0.000375155
0.000381835
0.000388325
0.000394622
0.000400723
0.000406624
0.000412319
0.000417804
0.000423075
0.000428128
0.00043296
0.000437568
0.000441948
0.0004461
0.000450021
0.000453709
0.000457165
0.000460388
0.000463385
0.000466187
0.000468729
0.000471048
0.000473113
0.000474951
0.000476579
0.000477989
0.000479183
0.000480165
0.000480939
0.000481509
0.00048188
0.000482058
0.000482045
0.000481848
0.000481472
0.000480919
0.000480196
0.000479305
0.000478248
0.000477025
0.000475635
0.000474071
0.000472323
0.000470374
0.00046821
0.000465823
0.000463217
0.000460408
0.000457413
0.000454255
0.000450951
0.000447517
0.000443966
0.000440311
0.000436561
0.000432725
0.000428811
0.000424823
0.000420772
0.000416663
0.000412501
0.000408293
0.000404042
0.000399754
0.000395434
0.000391086
0.000386713
0.000382322
0.00037792
0.000373514
0.000369101
0.000364684
0.000360265
0.000355847
0.000351433
0.000347027
0.00034263
0.000338247
0.000333876
0.000329523
0.00032519
0.00032088
0.000316594
0.000312335
0.000308105
0.000303906
0.000299737
0.000295601
0.000291499
0.000287432
0.000283401
0.000279407
0.000275451
0.000271534
0.000267657
0.000263819
0.000260021
0.000256262
0.000252544
0.000248867
0.00024523
0.000241635
0.000238084
0.000234575
0.000231108
0.000227683
0.000224299
0.000220958
0.000217663
0.00021441
0.000211198
0.000208028
0.000204896
0.000201806
0.000198755
0.000195744
0.000192769
0.000189829
0.000186922
0.000184048
0.000181201
0.000178379
0.000175577
0.000172789
0.000170004
0.000167218
0.000164402
0.000161556
0.000158633
0.000155523
0.000152653
0.000146468
2.63612e-06
1.27931e-05
3.11207e-05
4.86186e-05
6.27782e-05
7.37094e-05
8.21683e-05
8.89479e-05
9.46885e-05
9.98771e-05
0.000104869
0.000109912
0.000115173
0.000120755
0.000126722
0.000133081
0.000139813
0.000146974
0.000154578
0.000162521
0.000170776
0.00017931
0.000188088
0.000197072
0.000206225
0.000215513
0.000224901
0.00023436
0.00024386
0.000253369
0.000262874
0.000272355
0.000281795
0.00029118
0.000300505
0.000309744
0.000318875
0.000327884
0.000336764
0.000345503
0.000354096
0.000362536
0.000370821
0.000378947
0.000386913
0.000394714
0.000402342
0.000409792
0.000417061
0.000424145
0.000431039
0.000437738
0.000444239
0.000450535
0.000456623
0.000462496
0.000468151
0.000473583
0.000478789
0.000483763
0.000488503
0.000493007
0.000497272
0.000501296
0.000505078
0.000508617
0.000511919
0.000515007
0.00051783
0.000520412
0.000522738
0.000524826
0.000526687
0.000528314
0.00052971
0.00053088
0.000531826
0.000532555
0.000533069
0.000533373
0.000533473
0.000533372
0.000533077
0.000532591
0.000531919
0.000531064
0.000530031
0.000528821
0.000527434
0.000525868
0.00052412
0.000522183
0.000520052
0.000517722
0.000515197
0.000512486
0.000509598
0.000506548
0.000503348
0.000500011
0.000496548
0.00049297
0.000489286
0.000485505
0.000481633
0.000477678
0.000473647
0.000469546
0.000465381
0.000461159
0.000456884
0.000452561
0.000448195
0.000443791
0.000439353
0.000434886
0.000430394
0.00042588
0.00042135
0.000416807
0.000412254
0.000407695
0.000403133
0.000398572
0.000394013
0.00038946
0.000384921
0.000380397
0.000375886
0.00037139
0.000366912
0.000362453
0.000358015
0.000353601
0.00034921
0.000344844
0.000340506
0.000336198
0.000331919
0.000327671
0.000323456
0.000319274
0.000315124
0.000311009
0.000306929
0.000302885
0.000298877
0.000294906
0.000290971
0.000287074
0.000283215
0.000279396
0.000275613
0.000271867
0.000268158
0.000264489
0.000260858
0.000257267
0.000253713
0.000250197
0.000246718
0.00024328
0.000239881
0.000236519
0.000233192
0.000229897
0.000226636
0.000223406
0.000220204
0.000217024
0.000213863
0.000210715
0.00020757
0.00020442
0.000201243
0.00019803
0.000194746
0.000191268
0.000188116
0.000181688
2.98609e-06
1.24636e-05
3.17692e-05
5.14626e-05
6.77338e-05
8.06691e-05
9.08446e-05
9.91103e-05
0.000106166
0.00011255
0.000118653
0.000124752
0.000131033
0.000137579
0.000144423
0.000151669
0.00015937
0.000167459
0.000175879
0.000184601
0.000193591
0.00020281
0.000212222
0.000221789
0.000231475
0.000241246
0.000251066
0.000260921
0.000270794
0.000280678
0.000290534
0.000300328
0.000310041
0.000319653
0.000329145
0.000338524
0.000347789
0.000356935
0.000365957
0.000374852
0.000383616
0.000392242
0.000400726
0.000409062
0.000417247
0.000425277
0.000433145
0.000440847
0.000448378
0.000455732
0.000462904
0.000469889
0.000476681
0.000483274
0.000489662
0.00049584
0.000501802
0.000507543
0.000513058
0.000518344
0.000523395
0.000528208
0.000532781
0.000537111
0.000541195
0.000545032
0.00054863
0.000551992
0.000555095
0.00055795
0.000560549
0.000562906
0.000565021
0.000566893
0.000568524
0.000569919
0.000571081
0.000572014
0.000572723
0.000573212
0.000573485
0.000573546
0.000573402
0.000573056
0.000572513
0.000571777
0.000570853
0.000569743
0.00056845
0.000566975
0.000565317
0.000563476
0.000561451
0.000559242
0.000556851
0.000554284
0.000551548
0.000548653
0.000545608
0.000542423
0.000539108
0.00053567
0.000532119
0.000528463
0.000524708
0.000520862
0.000516931
0.000512922
0.000508841
0.000504693
0.000500484
0.000496219
0.000491903
0.00048754
0.000483136
0.000478695
0.00047422
0.000469717
0.000465188
0.00046064
0.000456073
0.000451493
0.000446903
0.000442305
0.000437704
0.000433101
0.000428499
0.000423901
0.00041931
0.000414728
0.000410158
0.000405601
0.00040106
0.000396536
0.000392033
0.000387554
0.000383097
0.000378663
0.000374252
0.000369867
0.000365507
0.000361174
0.000356868
0.000352591
0.000348344
0.000344126
0.00033994
0.000335784
0.000331659
0.000327567
0.000323509
0.000319485
0.000315494
0.000311536
0.000307612
0.000303721
0.000299865
0.000296041
0.000292251
0.000288495
0.000284772
0.000281083
0.000277429
0.000273808
0.000270218
0.000266659
0.000263134
0.000259639
0.000256169
0.00025272
0.00024929
0.000245873
0.000242459
0.000239039
0.000235597
0.000232118
0.000228576
0.000224856
0.000221433
0.000215091
3.29497e-06
1.18811e-05
3.14669e-05
5.28542e-05
7.11229e-05
8.59413e-05
9.78801e-05
0.000107691
0.000116109
0.000123707
0.000130897
0.000137941
0.00014504
0.00015239
0.000160114
0.000168189
0.000176583
0.000185288
0.000194277
0.000203516
0.000212967
0.000222595
0.000232362
0.000242232
0.000252173
0.000262173
0.000272226
0.000282287
0.000292306
0.000302247
0.000312097
0.00032186
0.000331532
0.00034111
0.000350589
0.000359964
0.000369231
0.000378387
0.000387431
0.00039636
0.00040517
0.00041386
0.000422424
0.000430859
0.00043916
0.000447323
0.000455341
0.00046321
0.000470922
0.000478472
0.000485853
0.000493059
0.000500082
0.000506915
0.000513553
0.000519988
0.000526214
0.000532226
0.000538016
0.000543581
0.000548914
0.000554013
0.000558873
0.000563491
0.000567863
0.000571989
0.000575873
0.000579508
0.00058289
0.000586023
0.000588904
0.000591536
0.000593924
0.000596056
0.000597941
0.000599584
0.000600988
0.000602157
0.000603093
0.000603803
0.000604288
0.000604555
0.000604607
0.000604449
0.000604087
0.000603524
0.000602765
0.000601813
0.000600674
0.000599348
0.00059784
0.00059615
0.00059428
0.000592233
0.000590012
0.000587621
0.000585067
0.000582357
0.000579497
0.000576496
0.000573362
0.000570102
0.000566724
0.000563236
0.000559644
0.000555954
0.000552174
0.000548309
0.000544365
0.000540349
0.000536265
0.000532118
0.000527914
0.000523658
0.000519353
0.000515005
0.000510617
0.000506195
0.000501741
0.00049726
0.000492755
0.00048823
0.000483689
0.000479134
0.000474568
0.000469995
0.000465417
0.000460837
0.000456257
0.000451681
0.000447109
0.000442544
0.000437989
0.000433445
0.000428913
0.000424396
0.000419895
0.000415411
0.000410946
0.000406501
0.000402077
0.000397676
0.000393299
0.000388946
0.000384616
0.000380312
0.000376032
0.000371778
0.000367549
0.000363348
0.000359174
0.000355029
0.000350912
0.000346823
0.000342764
0.000338734
0.000334733
0.000330762
0.000326821
0.000322908
0.000319023
0.000315168
0.000311342
0.000307544
0.000303774
0.000300031
0.000296316
0.000292627
0.000288961
0.000285313
0.000281687
0.000278073
0.000274464
0.00027085
0.000267218
0.000263553
0.000259834
0.000255965
0.00025232
0.000246225
3.55647e-06
1.1188e-05
3.05147e-05
5.30498e-05
7.30724e-05
8.95933e-05
0.000103234
0.000114578
0.000124351
0.000133079
0.000141224
0.000149185
0.000157209
0.000165382
0.000173758
0.000182384
0.000191263
0.000200385
0.000209725
0.000219252
0.000228931
0.000238728
0.00024861
0.000258573
0.000268625
0.000278681
0.000288683
0.00029861
0.000308451
0.000318211
0.000327895
0.000337495
0.000347006
0.000356429
0.000365761
0.000375004
0.000384156
0.000393217
0.000402187
0.000411065
0.000419848
0.000428533
0.000437117
0.000445596
0.000453963
0.000462213
0.000470339
0.000478335
0.000486193
0.000493905
0.000501463
0.000508859
0.000516086
0.000523134
0.000529997
0.000536666
0.000543135
0.000549396
0.000555443
0.000561269
0.00056687
0.000572239
0.000577373
0.000582267
0.000586919
0.000591325
0.000595485
0.000599394
0.000603052
0.000606467
0.000609629
0.000612537
0.000615208
0.000617605
0.000619754
0.000621657
0.000623317
0.000624737
0.000625921
0.000626872
0.000627594
0.000628091
0.000628367
0.000628428
0.000628278
0.000627921
0.000627362
0.000626607
0.000625658
0.000624521
0.000623198
0.000621694
0.000620012
0.000618155
0.000616128
0.000613935
0.000611581
0.000609073
0.000606417
0.000603619
0.000600687
0.000597627
0.000594446
0.000591152
0.000587749
0.000584246
0.000580647
0.000576959
0.000573188
0.00056934
0.000565418
0.00056143
0.00055738
0.000553271
0.000549111
0.000544901
0.000540647
0.000536354
0.000532024
0.000527661
0.00052327
0.000518854
0.000514415
0.000509958
0.000505485
0.000501
0.000496504
0.000492
0.000487492
0.00048298
0.000478468
0.000473958
0.000469452
0.00046495
0.000460456
0.000455971
0.000451496
0.000447032
0.000442581
0.000438145
0.000433723
0.000429318
0.000424929
0.000420559
0.000416207
0.000411875
0.000407563
0.000403273
0.000399005
0.00039476
0.000390537
0.000386336
0.000382159
0.000378005
0.000373875
0.00036977
0.000365689
0.000361633
0.000357602
0.000353597
0.000349616
0.00034566
0.000341729
0.000337821
0.000333937
0.000330076
0.000326237
0.000322421
0.000318625
0.000314845
0.000311081
0.000307329
0.00030358
0.00029983
0.000296069
0.00029228
0.000288446
0.000284492
0.000280685
0.000274886
3.76747e-06
1.0478e-05
2.91467e-05
5.22904e-05
7.36869e-05
9.17639e-05
0.000106933
0.000119715
0.000130701
0.00014059
0.000149845
0.000158742
0.0001675
0.000176272
0.000185147
0.000194172
0.000203362
0.000212711
0.000222201
0.000231801
0.000241499
0.000251297
0.0002612
0.000271113
0.000280971
0.000290753
0.000300436
0.000310042
0.000319576
0.000329034
0.000338417
0.000347726
0.000356964
0.000366133
0.000375237
0.000384279
0.000393259
0.000402179
0.000411039
0.000419838
0.000428571
0.000437236
0.000445828
0.00045434
0.000462766
0.000471098
0.000479327
0.000487445
0.000495443
0.000503311
0.00051104
0.000518621
0.000526043
0.000533298
0.000540377
0.000547271
0.000553973
0.000560473
0.000566765
0.000572842
0.000578698
0.000584327
0.000589724
0.000594884
0.000599804
0.00060448
0.00060891
0.000613082
0.000617018
0.000620708
0.000624144
0.000627333
0.000630276
0.00063294
0.000635354
0.000637521
0.000639442
0.000641121
0.00064256
0.000643762
0.000644731
0.000645471
0.000645987
0.000646283
0.000646362
0.000646231
0.000645894
0.000645355
0.00064462
0.000643694
0.00064258
0.000641283
0.000639808
0.000638159
0.000636342
0.00063436
0.000632219
0.000629924
0.000627482
0.000624899
0.000622181
0.000619334
0.000616364
0.000613278
0.000610082
0.000606782
0.000603384