/*--------------------------------*- C++ -*----------------------------------*\
| =========                 |                                                 |
| \\      /  F ield         | OpenFOAM: The Open Source CFD Toolbox           |
|  \\    /   O peration     | Version:  2112                                  |
|   \\  /    A nd           | Website:  www.openfoam.com                      |
|    \\/     M anipulation  |                                                 |
\*---------------------------------------------------------------------------*/
FoamFile
{
    version     2.0;
    format      ascii;
    arch        "LSB;label=32;scalar=64";
    class       volScalarField;
    location    "237";
    object      p;
}
// * * * * * * * * * * * * * * * * * * * * * * * * * * * * * * * * * * * * * //

dimensions      [0 2 -2 0 0 0 0];

internalField   nonuniform List<scalar> 
12225
(
-0.0691663
-0.0565059
-0.0340889
-0.0172247
-0.00572697
0.00204729
0.00726924
0.0106814
0.0127954
0.0139573
0.0143947
0.0142501
0.0135972
0.0124356
0.0106706
0.00800122
0.00372466
-0.00412311
-0.108975
-0.061211
-0.0371387
-0.0197968
-0.00788421
0.000226651
0.00572627
0.00936088
0.0116524
0.0129554
0.0135037
0.0134443
0.0128534
0.0117322
0.00999176
0.00735181
0.00329751
-0.00392282
-0.138805
-0.0689537
-0.0430754
-0.0246782
-0.0120182
-0.00331744
0.00267353
0.00670821
0.00932444
0.01089
0.0116489
0.0117565
0.0112958
0.0102773
0.0086351
0.00616255
0.00269318
-0.00222858
-0.149235
-0.0763605
-0.0494704
-0.0300087
-0.0166519
-0.00739885
-0.000932517
0.00350539
0.00646179
0.00831255
0.00930973
0.00961689
0.00932782
0.00847181
0.00702692
0.0048994
0.00220533
-0.000854747
-0.147935
-0.081984
-0.0547036
-0.0346101
-0.0208019
-0.0111594
-0.00433887
0.000416827
0.00365489
0.00575303
0.00696778
0.00747038
0.00736781
0.00671511
0.00554227
0.00386311
0.00194038
9.90832e-05
-0.140125
-0.0853707
-0.0584332
-0.0382766
-0.0242875
-0.0144164
-0.00735884
-0.00237047
0.00108781
0.00339073
0.00479676
0.0054842
0.0055742
0.00514852
0.00428288
0.00306753
0.00181436
0.000773832
-0.128201
-0.08623
-0.0606082
-0.0409779
-0.0270939
-0.0171559
-0.00997068
-0.0048269
-0.00120355
0.00126608
0.00283971
0.00370136
0.00398523
0.00379617
0.00324285
0.00245905
0.00175123
0.00124663
-0.113779
-0.0844499
-0.0611824
-0.0426392
-0.0291714
-0.0193457
-0.0121483
-0.00692849
-0.00319553
-0.000597052
0.00112032
0.00214359
0.00261681
0.00266168
0.00240618
0.00200149
0.00171918
0.00156468
-0.0980981
-0.0801808
-0.0601456
-0.043187
-0.0304593
-0.0209438
-0.0138602
-0.00864957
-0.00486562
-0.00217824
-0.000343299
0.000825336
0.00147696
0.00174268
0.00175762
0.0016722
0.00171003
0.00177662
-0.0820121
-0.0737939
-0.0575549
-0.0425883
-0.0309129
-0.0219155
-0.0150804
-0.00996914
-0.00619608
-0.00346227
-0.0015389
-0.000245441
0.000567348
0.00103248
0.00128259
0.00145618
0.00172756
0.00192905
-0.0660069
-0.0657874
-0.0535788
-0.0408834
-0.0305289
-0.0222502
-0.0157977
-0.0108776
-0.00717894
-0.00444286
-0.00246234
-0.00106804
-0.000116336
0.000521154
0.000967803
0.00134471
0.00178372
0.00206049
-0.0516284
-0.0574204
-0.0489129
-0.038425
-0.0294581
-0.0219967
-0.0160075
-0.0113415
-0.00776683
-0.00506834
-0.00306466
-0.0016017
-0.000545799
0.000222426
0.00081425
0.00133362
0.0018839
0.00219119
-0.0383531
-0.0483076
-0.0435178
-0.0352335
-0.0277322
-0.0212179
-0.0157941
-0.0114548
-0.00805731
-0.00543589
-0.00343925
-0.00193303
-0.000797576
7.39892e-05
0.000778899
0.0014045
0.00201744
0.00236906
-0.0244067
-0.0375033
-0.0367248
-0.0308954
-0.0250763
-0.0197438
-0.0150657
-0.0111749
-0.00803762
-0.00554915
-0.00359653
-0.00207201
-0.000876132
8.09023e-05
0.000879479
0.00158871
0.00224223
0.00264395
-0.0102209
-0.0255427
-0.0286587
-0.0254322
-0.0214224
-0.0174502
-0.0136895
-0.0103755
-0.00759001
-0.00530033
-0.00343907
-0.00193209
-0.000705805
0.000308357
0.00117223
0.00193669
0.00261389
0.00305955
0.00333611
-0.013389
-0.0198768
-0.0191877
-0.0169532
-0.0143786
-0.0116289
-0.00898234
-0.00662199
-0.00459067
-0.00286978
-0.00142186
-0.000202623
0.000833362
0.00172879
0.00251822
0.00320337
0.0036879
0.0148032
-0.002615
-0.011605
-0.0130532
-0.0123177
-0.0109491
-0.00912536
-0.0071171
-0.00517626
-0.00341241
-0.00185058
-0.000485709
0.000700009
0.0017308
0.00263267
0.00342762
0.00411752
0.00465522
0.0215045
0.004206
-0.0060133
-0.00870543
-0.00882095
-0.00814042
-0.00687763
-0.00527091
-0.00359696
-0.00200625
-0.000551952
0.000751285
0.00190472
0.00291885
0.00380876
0.0045894
0.00526972
0.00584528
0.0188871
0.00264558
-0.00692389
-0.00912002
-0.00874345
-0.00764605
-0.00605679
-0.00418572
-0.00229357
-0.000524908
0.00107311
0.00249202
0.00373806
0.00482558
0.00577284
0.00659931
0.00733145
0.0080145
0.00878189
-0.00742002
-0.0150327
-0.0151043
-0.0130999
-0.0107009
-0.00806759
-0.00540539
-0.00292742
-0.000722227
0.00120227
0.00286356
0.00428754
0.00550273
0.0065375
0.00741838
0.00818163
0.00889021
-0.00833653
-0.0223483
-0.0260486
-0.0227829
-0.0183363
-0.0140518
-0.0099963
-0.00631868
-0.00312866
-0.000422034
0.0018545
0.00376059
0.00535223
0.00668091
0.0077907
0.00871996
0.00951354
0.010254
-0.029896
-0.0395175
-0.037655
-0.0303543
-0.0231157
-0.0167934
-0.0113154
-0.00669273
-0.0028804
0.000235878
0.0027781
0.00485142
0.00654349
0.00792704
0.00906065
0.00999176
0.0107691
0.011477
-0.0542392
-0.0565231
-0.0477563
-0.0362431
-0.0262929
-0.0181461
-0.0115094
-0.00617598
-0.00192801
0.00145131
0.00414447
0.00629579
0.00801911
0.00940367
0.0105193
0.0114203
0.0121573
0.0128134
-0.0800501
-0.0711158
-0.0548006
-0.0395291
-0.027351
-0.0178536
-0.0104539
-0.00470121
-0.000230171
0.00325393
0.00597862
0.00811665
0.00979973
0.0111287
0.0121805
0.0130144
0.0136802
0.0142565
-0.105634
-0.0811721
-0.0579266
-0.0399402
-0.0262695
-0.0159921
-0.00823153
-0.00233473
0.00216311
0.00560716
0.00825437
0.0102955
0.011873
0.0130943
0.0140405
0.0147732
0.0153407
0.0158147
-0.128553
-0.0851535
-0.0570201
-0.0376584
-0.0232879
-0.0127627
-0.00498751
0.000818289
0.00517331
0.00845079
0.0109241
0.0127933
0.0142061
0.0152724
0.0160746
0.0166749
0.0171193
0.0174708
-0.144397
-0.0826531
-0.0523889
-0.0329377
-0.0186281
-0.00831305
-0.000817723
0.00468622
0.00874114
0.0117324
0.0139393
0.015564
0.0167543
0.0176193
0.0182399
0.0186773
0.0189748
0.0191848
-0.143737
-0.0744766
-0.0447542
-0.0261254
-0.0125515
-0.00285117
0.00408858
0.0090847
0.0126857
0.0152757
0.017129
0.018443
0.0193601
0.0199848
0.0203939
0.0206449
0.0207785
0.0208384
-0.114173
-0.0635479
-0.0366252
-0.0190189
-0.0064865
0.00240545
0.00866145
0.0130675
0.016168
0.0183344
0.0198283
0.0208359
0.0214909
0.0218902
0.0221048
0.0221877
0.022176
0.0221114
-0.0672482
-0.0564094
-0.032225
-0.0150783
-0.00315903
0.00524847
0.0110952
0.0151522
0.0179616
0.0198854
0.021176
0.0220125
0.0225228
0.0227989
0.0229081
0.0229005
0.0228115
0.0226824
-0.00747488
-0.00745945
-0.00748183
-0.00755094
-0.00765269
-0.00777574
-0.00791366
-0.00806323
-0.00822263
-0.00839136
-0.00856997
-0.00875981
-0.00896254
-0.00917967
-0.00941243
-0.00966179
-0.00992832
-0.0102121
-0.0105127
-0.0108289
-0.0111591
-0.0115013
-0.0118526
-0.0122096
-0.0125678
-0.0129221
-0.0132661
-0.0135932
-0.0138952
-0.014164
-0.0143901
-0.0145646
-0.0146775
-0.0147199
-0.0146823
-0.0145565
-0.0143344
-0.0140094
-0.013575
-0.0130266
-0.01236
-0.011573
-0.0106636
-0.00963103
-0.00847488
-0.00719803
-0.00580602
-0.00430653
-0.00270058
-0.000980748
0.00085484
0.00279639
0.00483564
0.00696435
0.00917546
0.0114613
0.0138149
0.0162285
0.018695
0.0212065
0.023756
0.0263357
0.0289384
0.0315567
0.0341835
0.0368119
0.0394352
0.0420469
0.0446408
0.0472108
0.0497514
0.0522571
0.0547233
0.0571453
0.0595189
0.0618403
0.064106
0.066313
0.0684585
0.0705403
0.0725562
0.0745047
0.0763845
0.0781947
0.0799345
0.0816038
0.0832026
0.0847311
0.08619
0.0875802
0.0889025
0.0901579
0.091348
0.0924719
0.0935278
0.0945166
0.0954406
0.0963024
0.0971042
0.0978485
0.0985374
0.0991731
0.0997576
0.100293
0.100781
0.101225
0.101625
0.101984
0.102304
0.102587
0.102834
0.103048
0.103229
0.103381
0.103504
0.1036
0.103671
0.103718
0.103743
0.103747
0.103732
0.103698
0.103647
0.103581
0.103499
0.103405
0.103297
0.103179
0.103049
0.10291
0.102761
0.102605
0.102441
0.10227
0.102093
0.101911
0.101724
0.101532
0.101336
0.101136
0.100933
0.100728
0.10052
0.100309
0.100096
0.0998807
0.0996641
0.0994462
0.0992271
0.0990071
0.0987863
0.0985648
0.0983428
0.0981202
0.0978973
0.0976741
0.0974507
0.0972272
0.0970037
0.0967803
0.0965571
0.0963345
0.0961126
0.0958918
0.0956724
0.0954552
0.0952407
0.0950301
0.0948245
0.0946258
0.0944362
0.0942589
0.0940982
0.0939598
0.0938524
0.093786
0.0937839
0.0938486
0.0941078
0.0942802
-0.00737861
-0.00738181
-0.00741204
-0.00747415
-0.00755997
-0.00765969
-0.00776721
-0.00788066
-0.00800146
-0.00813202
-0.00827441
-0.00843007
-0.00860036
-0.00878752
-0.00899353
-0.00922001
-0.0094679
-0.00973783
-0.0100297
-0.0103435
-0.0106781
-0.0110319
-0.0114017
-0.0117835
-0.0121722
-0.0125619
-0.0129453
-0.0133148
-0.0136611
-0.013975
-0.0142463
-0.0144651
-0.014621
-0.0147047
-0.0147065
-0.0146185
-0.0144325
-0.0141424
-0.0137422
-0.0132276
-0.0125949
-0.011842
-0.0109672
-0.00997038
-0.00885148
-0.00761171
-0.00625108
-0.00476959
-0.00316978
-0.00146256
0.000344178
0.0022478
0.00424478
0.00632948
0.00849605
0.0107376
0.0130476
0.0154188
0.0178442
0.0203164
0.0228283
0.0253724
0.0279416
0.0305287
0.0331268
0.0357289
0.0383286
0.0409194
0.0434953
0.04605
0.0485779
0.0510738
0.0535328
0.0559503
0.058322
0.0606442
0.0629132
0.0651259
0.0672794
0.0693715
0.0713998
0.0733628
0.075259
0.0770875
0.0788473
0.0805383
0.0821602
0.0837133
0.0851983
0.0866166
0.0879686
0.0892524
0.090465
0.0916079
0.0926843
0.0936958
0.0946439
0.0955306
0.096358
0.097128
0.0978428
0.0985043
0.0991145
0.0996754
0.100189
0.100657
0.101082
0.101465
0.101808
0.102113
0.102383
0.102618
0.10282
0.102992
0.103135
0.10325
0.103339
0.103404
0.103445
0.103465
0.103465
0.103447
0.10341
0.103357
0.103288
0.103206
0.10311
0.103002
0.102883
0.102754
0.102615
0.102468
0.102312
0.102149
0.10198
0.101805
0.101624
0.101438
0.101248
0.101054
0.100857
0.100656
0.100452
0.100245
0.100036
0.0998251
0.0996121
0.0993977
0.0991819
0.0989649
0.0987469
0.0985281
0.0983085
0.0980882
0.0978674
0.0976462
0.0974247
0.0972029
0.096981
0.0967591
0.0965374
0.0963161
0.0960954
0.0958758
0.0956575
0.0954413
0.0952279
0.0950182
0.0948135
0.0946156
0.0944269
0.0942504
0.0940903
0.0939526
0.0938454
0.0937787
0.093775
0.0938328
0.0940799
0.09418
-0.00707873
-0.00712027
-0.00719555
-0.00729136
-0.00738909
-0.00747702
-0.00755537
-0.00763036
-0.00770862
-0.00779558
-0.0078957
-0.00801321
-0.00815229
-0.00831688
-0.00851012
-0.00873449
-0.00899154
-0.00928214
-0.00960616
-0.00996249
-0.0103481
-0.0107588
-0.0111889
-0.0116321
-0.0120809
-0.012527
-0.0129617
-0.0133758
-0.0137596
-0.0141038
-0.0143988
-0.0146357
-0.0148052
-0.0148994
-0.0149104
-0.0148311
-0.0146552
-0.0143773
-0.0139924
-0.013497
-0.0128876
-0.0121623
-0.0113195
-0.0103589
-0.0092809
-0.0080863
-0.00677542
-0.00534952
-0.00381107
-0.00216546
-0.000418273
0.00142589
0.00336261
0.00538656
0.0074922
0.00967332
0.0119236
0.0142364
0.016605
0.0190223
0.0214814
0.0239752
0.0264968
0.029039
0.0315951
0.0341583
0.0367222
0.0392805
0.0418272
0.0443562
0.0468618
0.0493388
0.0517823
0.0541876
0.0565504
0.0588669
0.0611333
0.0633464
0.0655033
0.0676016
0.0696388
0.0716133
0.0735235
0.0753682
0.0771466
0.0788579
0.080502
0.0820787
0.0835881
0.0850308
0.0864072
0.0877177
0.0889625
0.0901429
0.0912603
0.092315
0.0933077
0.0942395
0.095112
0.0959267
0.0966857
0.0973906
0.0980435
0.0986461
0.0992005
0.0997085
0.100172
0.100593
0.100973
0.101314
0.101619
0.101887
0.102123
0.102326
0.102499
0.102644
0.102761
0.102853
0.102922
0.102967
0.102991
0.102996
0.102982
0.10295
0.102902
0.10284
0.102763
0.102673
0.102571
0.102458
0.102335
0.102203
0.102062
0.101912
0.101756
0.101593
0.101424
0.101249
0.101069
0.100885
0.100697
0.100505
0.100309
0.10011
0.0999087
0.0997047
0.0994985
0.0992904
0.0990806
0.0988693
0.0986566
0.0984428
0.0982279
0.0980122
0.0977956
0.0975784
0.0973605
0.0971423
0.0969237
0.0967049
0.0964861
0.0962675
0.0960495
0.0958323
0.0956163
0.0954022
0.0951907
0.0949828
0.0947798
0.0945834
0.0943959
0.0942203
0.0940607
0.0939225
0.0938137
0.0937427
0.0937301
0.0937671
0.0939695
0.0939682
-0.0065914
-0.00668612
-0.00683393
-0.00699346
-0.00712949
-0.00723404
-0.00731617
-0.00738813
-0.0074606
-0.00754236
-0.00764049
-0.00776107
-0.00790941
-0.00809015
-0.00830684
-0.00856192
-0.00885635
-0.0091898
-0.00956027
-0.00996441
-0.0103973
-0.0108533
-0.0113254
-0.0118064
-0.012288
-0.0127621
-0.0132196
-0.013652
-0.0140502
-0.0144058
-0.0147099
-0.0149545
-0.0151316
-0.0152337
-0.0152537
-0.0151853
-0.0150226
-0.0147605
-0.0143944
-0.0139206
-0.013336
-0.0126384
-0.011826
-0.0108981
-0.00985444
-0.00869583
-0.00742329
-0.0060389
-0.00454528
-0.00294649
-0.00124666
0.000549887
0.00243874
0.00441485
0.00647294
0.00860714
0.0108115
0.0130795
0.0154047
0.0177804
0.0201998
0.0226561
0.0251423
0.0276516
0.0301773
0.0327126
0.0352513
0.0377871
0.0403139
0.0428256
0.0453168
0.0477823
0.050217
0.0526162
0.0549756
0.0572912
0.0595592
0.0617764
0.0639397
0.0660465
0.0680945
0.0700817
0.0720064
0.0738674
0.0756634
0.0773939
0.0790584
0.0806569
0.0821892
0.0836549
0.0850541
0.0863868
0.0876541
0.0888577
0.0899994
0.0910799
0.0920999
0.0930604
0.0939625
0.0948076
0.0955973
0.0963332
0.0970172
0.0976509
0.0982362
0.0987749
0.0992689
0.09972
0.10013
0.100501
0.100834
0.101131
0.101394
0.101625
0.101825
0.101995
0.102139
0.102256
0.102348
0.102417
0.102465
0.102491
0.102499
0.102488
0.102461
0.102418
0.10236
0.102288
0.102204
0.102108
0.102001
0.101885
0.101759
0.101624
0.101481
0.101332
0.101175
0.101013
0.100845
0.100672
0.100494
0.100312
0.100126
0.0999365
0.0997438
0.0995482
0.09935
0.0991495
0.0989469
0.0987424
0.0985362
0.0983286
0.0981195
0.0979093
0.0976979
0.0974856
0.0972725
0.0970586
0.0968442
0.0966293
0.0964143
0.0961992
0.0959844
0.0957702
0.095557
0.0953454
0.0951362
0.0949303
0.094729
0.0945338
0.0943469
0.0941712
0.0940104
0.0938693
0.093755
0.0936737
0.0936426
0.0936458
0.0937779
0.093681
-0.00601829
-0.0061699
-0.00640921
-0.00665498
-0.0068538
-0.0070042
-0.00712286
-0.00722652
-0.00732914
-0.00744218
-0.00757474
-0.007734
-0.00792547
-0.00815328
-0.0084201
-0.00872718
-0.00907421
-0.00945951
-0.00987986
-0.0103308
-0.0108066
-0.0113006
-0.0118055
-0.0123139
-0.0128176
-0.0133086
-0.0137784
-0.0142188
-0.0146215
-0.0149785
-0.0152819
-0.0155241
-0.0156979
-0.0157965
-0.0158134
-0.0157428
-0.0155792
-0.0153179
-0.0149546
-0.014486
-0.0139088
-0.0132211
-0.0124211
-0.0115081
-0.0104815
-0.00934222
-0.00809109
-0.00673015
-0.00526179
-0.00368939
-0.00201651
-0.000247317
0.00161388
0.00356215
0.00559233
0.00769876
0.0098756
0.0121166
0.0144155
0.0167657
0.0191605
0.0215933
0.0240572
0.0265456
0.0290518
0.0315693
0.0340917
0.0366128
0.0391265
0.0416269
0.0441084
0.0465661
0.048995
0.0513902
0.0537474
0.0560625
0.0583318
0.060552
0.06272
0.0648331
0.0668889
0.0688853
0.0708205
0.0726933
0.0745024
0.0762473
0.0779271
0.0795416
0.0810901
0.0825724
0.083988
0.0853368
0.0866198
0.0878387
0.0889955
0.0900915
0.0911279
0.0921057
0.0930261
0.0938903
0.0946997
0.0954559
0.0961605
0.0968153
0.0974218
0.0979819
0.0984973
0.0989699
0.0994012
0.0997932
0.100148
0.100466
0.10075
0.101001
0.101222
0.101412
0.101575
0.101712
0.101823
0.101911
0.101977
0.102022
0.102047
0.102054
0.102043
0.102016
0.101974
0.101918
0.101849
0.101768
0.101675
0.101572
0.10146
0.101338
0.101208
0.10107
0.100925
0.100773
0.100616
0.100453
0.100285
0.100113
0.099936
0.0997552
0.0995708
0.0993832
0.0991927
0.0989995
0.0988039
0.0986061
0.0984063
0.0982047
0.0980014
0.0977967
0.0975905
0.0973832
0.0971747
0.0969653
0.0967551
0.0965442
0.0963328
0.0961212
0.0959096
0.0956984
0.0954879
0.0952787
0.0950715
0.0948672
0.0946669
0.0944722
0.0942849
0.0941076
0.0939436
0.0937969
0.093673
0.0935761
0.093519
0.0934805
0.0935354
0.0933491
-0.0055064
-0.00570675
-0.00604068
-0.00638491
-0.00666194
-0.00687473
-0.00704749
-0.00720161
-0.0073538
-0.00751742
-0.00770271
-0.00791723
-0.00816614
-0.00845271
-0.00877837
-0.0091431
-0.00954522
-0.0099819
-0.010449
-0.0109414
-0.0114529
-0.0119768
-0.0125059
-0.0130327
-0.0135496
-0.0140488
-0.0145224
-0.0149627
-0.0153621
-0.0157132
-0.0160086
-0.0162414
-0.016405
-0.016493
-0.0164994
-0.0164188
-0.0162461
-0.015977
-0.0156071
-0.0151335
-0.0145532
-0.013864
-0.0130644
-0.0121535
-0.011131
-0.00999736
-0.00875346
-0.00740116
-0.00594266
-0.00438107
-0.00271975
-0.000962743
0.000885698
0.0028207
0.0048372
0.00692961
0.00909221
0.0113189
0.0136033
0.0159392
0.0183199
0.0207387
0.0231892
0.0256646
0.0281583
0.030664
0.0331754
0.0356863
0.0381905
0.0406823
0.0431563
0.0456075
0.0480309
0.0504219
0.0527759
0.0550891
0.0573576
0.059578
0.0617475
0.063863
0.0659223
0.0679234
0.0698645
0.0717441
0.073561
0.0753143
0.0770033
0.0786271
0.0801856
0.0816781
0.0831046
0.0844648
0.0857596
0.0869903
0.0881589
0.0892667
0.0903153
0.0913058
0.0922394
0.0931175
0.0939414
0.0947126
0.0954327
0.0961032
0.0967258
0.0973022
0.0978341
0.0983232
0.0987712
0.0991798
0.0995508
0.0998858
0.100186
0.100454
0.100691
0.100898
0.101077
0.101229
0.101356
0.10146
0.10154
0.1016
0.10164
0.101661
0.101664
0.101651
0.101622
0.101579
0.101523
0.101454
0.101374
0.101282
0.101181
0.10107
0.100951
0.100823
0.100688
0.100547
0.100399
0.100245
0.100086
0.0999219
0.0997531
0.0995801
0.0994032
0.0992229
0.0990393
0.0988528
0.0986636
0.0984719
0.098278
0.0980819
0.097884
0.0976843
0.097483
0.0972803
0.0970762
0.096871
0.0966646
0.0964574
0.0962495
0.0960411
0.0958324
0.0956238
0.0954156
0.0952084
0.0950027
0.0947994
0.0945995
0.0944043
0.0942154
0.0940351
0.0938659
0.093711
0.0935744
0.093458
0.0933703
0.0932868
0.0932669
0.0929997
-0.00519674
-0.00542676
-0.00583321
-0.00627009
-0.00662972
-0.00691143
-0.00714532
-0.00735718
-0.00756618
-0.00778684
-0.00802981
-0.00830248
-0.00860943
-0.0089531
-0.00933385
-0.00975043
-0.0102002
-0.0106799
-0.0111845
-0.0117087
-0.0122461
-0.0127904
-0.0133345
-0.0138714
-0.0143938
-0.0148944
-0.0153657
-0.0158008
-0.0161923
-0.0165333
-0.0168168
-0.0170365
-0.0171859
-0.0172594
-0.0172511
-0.0171561
-0.0169694
-0.0166869
-0.0163045
-0.0158193
-0.0152283
-0.0145295
-0.0137214
-0.0128031
-0.0117744
-0.0106357
-0.00938798
-0.00803294
-0.00657276
-0.00501045
-0.00334928
-0.00159327
0.000253373
0.00218579
0.00419894
0.00628728
0.00844511
0.0106664
0.0129449
0.0152743
0.0176481
0.0200598
0.0225027
0.0249704
0.0274564
0.0299543
0.0324581
0.0349614
0.0374582
0.0399429
0.0424102
0.0448553
0.0472732
0.0496591
0.0520087
0.0543181
0.0565835
0.0588016
0.0609693
0.0630842
0.0651436
0.0671457
0.0690885
0.0709706
0.0727906
0.0745475
0.0762406
0.0778692
0.0794326
0.0809309
0.0823637
0.083731
0.0850337
0.0862727
0.0874499
0.0885665
0.0896241
0.0906239
0.0915674
0.0924557
0.0932904
0.0940727
0.0948044
0.0954869
0.0961219
0.0967109
0.0972557
0.0977578
0.0982191
0.098641
0.0990254
0.0993738
0.0996878
0.0999691
0.100219
0.10044
0.100632
0.100797
0.100937
0.101054
0.101147
0.101219
0.101271
0.101305
0.10132
0.101319
0.101302
0.10127
0.101225
0.101167
0.101097
0.101015
0.100924
0.100823
0.100713
0.100595
0.100469
0.100336
0.100196
0.10005
0.0998991
0.0997425
0.0995811
0.0994151
0.099245
0.0990712
0.0988939
0.0987134
0.09853
0.0983439
0.0981553
0.0979644
0.0977713
0.0975763
0.0973794
0.0971809
0.0969808
0.0967794
0.0965766
0.0963728
0.0961679
0.0959624
0.0957563
0.0955499
0.0953437
0.0951379
0.0949332
0.0947303
0.0945301
0.0943335
0.0941421
0.0939574
0.0937814
0.0936163
0.0934647
0.0933265
0.093206
0.0930776
0.0929883
0.0926503
-0.00516819
-0.00540635
-0.00584975
-0.00635355
-0.00678504
-0.00713212
-0.00742612
-0.00769484
-0.00795899
-0.00823378
-0.00853
-0.00885483
-0.00921228
-0.00960384
-0.0100291
-0.0104865
-0.0109729
-0.0114841
-0.0120152
-0.0125608
-0.0131148
-0.013671
-0.0142227
-0.0147633
-0.0152856
-0.0157829
-0.0162481
-0.0166743
-0.0170548
-0.0173829
-0.0176522
-0.0178566
-0.0179899
-0.0180467
-0.0180213
-0.017909
-0.017705
-0.0174052
-0.0170058
-0.0165039
-0.0158965
-0.0151819
-0.0143584
-0.0134254
-0.0123828
-0.011231
-0.00997102
-0.00860475
-0.00713432
-0.00556276
-0.00389337
-0.00213016
-0.000277381
0.00166009
0.00367721
0.00576842
0.00792806
0.0101501
0.0124283
0.0147565
0.0171281
0.0195368
0.021976
0.0244393
0.0269203
0.0294127
0.0319106
0.0344076
0.0368979
0.039376
0.0418368
0.0442754
0.0466869
0.0490665
0.0514102
0.0537139
0.0559741
0.0581876
0.0603514
0.0624627
0.0645193
0.066519
0.0684601
0.070341
0.0721604
0.0739173
0.0756109
0.0772405
0.0788056
0.0803059
0.0817416
0.0831127
0.0844198
0.0856641
0.0868468
0.0879694
0.0890331
0.0900396
0.0909899
0.0918857
0.0927281
0.0935187
0.094259
0.0949505
0.0955948
0.0961935
0.0967482
0.0972606
0.0977322
0.0981648
0.0985599
0.0989192
0.0992442
0.0995365
0.0997976
0.100029
0.100232
0.100409
0.10056
0.100687
0.100792
0.100875
0.100937
0.100981
0.101007
0.101016
0.101009
0.100987
0.100951
0.100903
0.100842
0.10077
0.100687
0.100595
0.100493
0.100383
0.100265
0.10014
0.100008
0.0998693
0.099725
0.0995752
0.0994203
0.0992608
0.0990969
0.098929
0.0987574
0.0985824
0.0984043
0.0982232
0.0980395
0.0978533
0.0976647
0.0974739
0.0972811
0.0970864
0.09689
0.096692
0.0964925
0.0962917
0.0960896
0.0958866
0.0956827
0.0954783
0.0952736
0.0950689
0.0948648
0.0946618
0.0944606
0.0942619
0.094067
0.0938769
0.093693
0.0935163
0.0933483
0.0931868
0.0930333
0.0928615
0.0927092
0.0923106
-0.00543321
-0.00566157
-0.00610789
-0.00664499
-0.00712688
-0.00752611
-0.00787079
-0.00818853
-0.00849985
-0.00882012
-0.00915989
-0.0095258
-0.0099215
-0.0103484
-0.0108057
-0.0112912
-0.0118015
-0.0123326
-0.0128797
-0.0134373
-0.0139997
-0.0145607
-0.015114
-0.015653
-0.016171
-0.0166613
-0.0171173
-0.0175324
-0.0179
-0.018214
-0.0184681
-0.0186562
-0.0187724
-0.0188112
-0.0187671
-0.0186353
-0.0184112
-0.0180909
-0.0176707
-0.0171478
-0.0165194
-0.0157838
-0.0149398
-0.0139867
-0.0129244
-0.0117537
-0.0104756
-0.00909206
-0.00760543
-0.00601878
-0.00433547
-0.00255961
-0.000695509
0.00125193
0.0032776
0.00537594
0.00754128
0.00976758
0.0120488
0.0143785
0.0167505
0.0191582
0.0215954
0.0240555
0.0265325
0.0290201
0.0315123
0.0340029
0.0364863
0.0389571
0.0414103
0.0438411
0.0462447
0.0486165
0.0509523
0.0532485
0.0555014
0.0577078
0.0598649
0.0619701
0.0640209
0.0660153
0.0679517
0.0698283
0.0716441
0.0733979
0.0750889
0.0767166
0.0782803
0.07978
0.0812158
0.0825879
0.0838968
0.0851435
0.0863292
0.0874552
0.0885229
0.0895336
0.0904886
0.0913894
0.0922373
0.0930339
0.0937805
0.0944787
0.0951301
0.0957363
0.0962987
0.0968192
0.0972991
0.0977402
0.098144
0.0985122
0.0988463
0.0991477
0.0994181
0.0996589
0.0998716
0.100058
0.100218
0.100355
0.100468
0.100561
0.100632
0.100685
0.10072
0.100738
0.10074
0.100727
0.1007
0.100659
0.100607
0.100543
0.100468
0.100384
0.10029
0.100187
0.100076
0.0999579
0.0998326
0.0997008
0.0995629
0.0994193
0.0992704
0.0991167
0.0989584
0.098796
0.0986296
0.0984597
0.0982864
0.0981101
0.0979308
0.0977489
0.0975644
0.0973775
0.0971885
0.0969974
0.0968043
0.0966094
0.0964129
0.0962148
0.0960152
0.0958144
0.0956125
0.0954097
0.0952061
0.0950022
0.0947983
0.0945947
0.0943919
0.0941906
0.0939915
0.0937952
0.0936024
0.0934134
0.093228
0.093043
0.0928571
0.0926442
0.0924359
0.0919864
-0.0059618
-0.00616802
-0.00659014
-0.0071266
-0.00763164
-0.00806346
-0.00844344
-0.00879722
-0.00914363
-0.00949699
-0.00986746
-0.0102616
-0.0106827
-0.0111317
-0.0116077
-0.0121089
-0.012632
-0.0131728
-0.0137266
-0.0142882
-0.0148518
-0.0154116
-0.0159611
-0.0164941
-0.0170041
-0.0174847
-0.0179295
-0.0183322
-0.0186863
-0.0189856
-0.0192235
-0.0193942
-0.0194917
-0.0195107
-0.0194456
-0.0192921
-0.0190453
-0.0187017
-0.0182575
-0.0177102
-0.0170572
-0.0162971
-0.0154285
-0.0144512
-0.0133653
-0.0121715
-0.0108713
-0.00946668
-0.00796011
-0.00635482
-0.00465431
-0.00286276
-0.000984588
0.000975248
0.0030116
0.00511891
0.00729146
0.00952328
0.0118083
0.0141402
0.0165128
0.0189197
0.0213546
0.0238111
0.0262831
0.0287647
0.0312498
0.0337325
0.0362074
0.0386692
0.041113
0.043534
0.0459276
0.0482892
0.0506148
0.0529008
0.0551437
0.0573405
0.0594882
0.0615843
0.0636265
0.0656129
0.0675417
0.0694113
0.0712206
0.0729685
0.0746543
0.0762773
0.0778372
0.0793338
0.0807674
0.082138
0.0834463
0.0846931
0.0858797
0.087007
0.0880765
0.0890895
0.0900473
0.0909513
0.0918029
0.0926036
0.0933547
0.0940579
0.0947147
0.0953266
0.0958952
0.096422
0.0969087
0.0973567
0.0977678
0.0981433
0.098485
0.0987942
0.0990724
0.0993212
0.0995419
0.099736
0.0999048
0.100049
0.100171
0.100272
0.100352
0.100413
0.100456
0.100481
0.100491
0.100486
0.100467
0.100434
0.100389
0.100333
0.100265
0.100187
0.1001
0.100004
0.0999001
0.0997883
0.0996692
0.0995434
0.0994114
0.0992736
0.0991303
0.0989819
0.0988289
0.0986714
0.09851
0.0983447
0.098176
0.098004
0.0978289
0.0976509
0.0974703
0.097287
0.0971015
0.0969136
0.0967237
0.0965317
0.0963379
0.0961422
0.0959449
0.0957461
0.0955459
0.0953444
0.0951417
0.0949382
0.0947341
0.0945295
0.0943248
0.0941204
0.0939165
0.0937135
0.0935112
0.0933093
0.0931063
0.092898
0.0926812
0.0924302
0.0921724
0.0916804
-0.00669665
-0.00687372
-0.00725297
-0.00775968
-0.00825989
-0.00870207
-0.00909881
-0.00947212
-0.00983864
-0.0102113
-0.0105992
-0.0110082
-0.0114416
-0.0119006
-0.0123844
-0.0128909
-0.013417
-0.0139588
-0.0145115
-0.0150701
-0.0156287
-0.0161817
-0.0167229
-0.0172463
-0.0177456
-0.0182147
-0.018647
-0.019036
-0.0193749
-0.0196576
-0.0198775
-0.0200289
-0.0201057
-0.0201027
-0.0200145
-0.0198367
-0.0195646
-0.0191948
-0.0187239
-0.0181493
-0.0174687
-0.0166809
-0.015785
-0.0147808
-0.0136685
-0.0124494
-0.0111248
-0.00969714
-0.00816896
-0.00654365
-0.00482486
-0.00301687
-0.00112419
0.000848181
0.00289504
0.0050108
0.00718976
0.00942593
0.0117133
0.0140457
0.0164171
0.018821
0.0212513
0.0237019
0.0261667
0.0286398
0.0311152
0.0335874
0.0360512
0.0385013
0.0409328
0.0433412
0.0457218
0.0480702
0.0503826
0.0526555
0.0548855
0.0570696
0.0592049
0.0612891
0.0633199
0.0652953
0.0672137
0.0690736
0.0708737
0.0726132
0.0742912
0.0759073
0.0774609
0.0789522
0.0803812
0.0817483
0.0830538
0.0842988
0.0854842
0.086611
0.0876806
0.0886942
0.0896532
0.0905588
0.0914126
0.0922159
0.0929702
0.093677
0.0943378
0.0949541
0.0955275
0.0960594
0.0965516
0.0970054
0.0974225
0.0978043
0.0981524
0.0984683
0.0987534
0.0990092
0.0992371
0.0994383
0.0996144
0.0997664
0.0998957
0.100003
0.100091
0.100159
0.100209
0.100242
0.10026
0.100261
0.100249
0.100224
0.100185
0.100136
0.100075
0.100004
0.0999229
0.0998332
0.0997351
0.0996292
0.0995159
0.0993958
0.0992692
0.0991367
0.0989986
0.0988553
0.0987071
0.0985545
0.0983976
0.0982367
0.0980722
0.0979043
0.0977331
0.0975588
0.0973818
0.097202
0.0970196
0.0968349
0.0966478
0.0964586
0.0962672
0.0960739
0.0958786
0.0956816
0.0954828
0.0952824
0.0950805
0.0948771
0.0946725
0.0944666
0.0942597
0.0940518
0.0938428
0.0936326
0.0934206
0.0932055
0.0929852
0.0927543
0.0925083
0.0922224
0.0919211
0.0913937
-0.00756892
-0.00771365
-0.00803767
-0.00849144
-0.00896115
-0.00939144
-0.00978591
-0.0101619
-0.0105333
-0.0109109
-0.0113029
-0.0117149
-0.0121498
-0.0126086
-0.0130905
-0.0135935
-0.0141146
-0.0146498
-0.0151944
-0.0157435
-0.0162917
-0.0168333
-0.0173627
-0.0178738
-0.0183603
-0.0188155
-0.0192327
-0.0196053
-0.0199263
-0.0201897
-0.020389
-0.0205182
-0.0205715
-0.0205436
-0.0204292
-0.020224
-0.0199236
-0.0195248
-0.0190242
-0.0184196
-0.0177091
-0.0168917
-0.0159666
-0.0149341
-0.0137945
-0.0125493
-0.0112002
-0.00974966
-0.00820056
-0.00655637
-0.00482081
-0.00299824
-0.00109321
0.00088921
0.00294385
0.00506512
0.00724738
0.00948471
0.0117712
0.0141007
0.0164672
0.0188645
0.0212867
0.0237276
0.0261813
0.0286419
0.0311039
0.0335621
0.036011
0.0384456
0.0408612
0.0432533
0.0456173
0.0479488
0.0502446
0.0525009
0.0547146
0.0568828
0.0590027
0.0610718
0.0630882
0.0650497
0.0669549
0.0688023
0.0705907
0.0723192
0.0739871
0.0755938
0.0771391
0.0786229
0.0800454
0.0814069
0.0827078
0.083949
0.0851314
0.0862561
0.0873242
0.088337
0.0892957
0.0902018
0.0910564
0.0918612
0.0926174
0.0933267
0.0939904
0.0946101
0.0951872
0.0957234
0.09622
0.0966787
0.097101
0.0974883
0.0978421
0.0981638
0.0984551
0.0987171
0.0989514
0.0991592
0.0993418
0.0995005
0.0996365
0.0997511
0.0998454
0.0999204
0.0999774
0.100017
0.100041
0.10005
0.100044
0.100025
0.0999932
0.0999497
0.0998951
0.0998301
0.0997554
0.0996716
0.0995792
0.0994789
0.0993711
0.0992563
0.099135
0.0990075
0.0988743
0.0987358
0.0985922
0.098444
0.0982914
0.0981348
0.0979742
0.0978102
0.0976427
0.097472
0.0972983
0.0971218
0.0969425
0.0967607
0.0965763
0.0963896
0.0962006
0.0960094
0.0958161
0.0956206
0.0954232
0.0952237
0.0950223
0.0948189
0.0946136
0.0944063
0.0941969
0.0939852
0.093771
0.0935534
0.0933316
0.0931035
0.0928662
0.0926137
0.0923407
0.0920231
0.0916835
0.0911268
-0.00850549
-0.0086174
-0.00888092
-0.00926702
-0.00968494
-0.0100822
-0.0104556
-0.0108173
-0.0111786
-0.0115482
-0.0119329
-0.0123374
-0.0127642
-0.0132139
-0.0136856
-0.0141772
-0.0146858
-0.0152075
-0.0157379
-0.0162725
-0.0168058
-0.0173327
-0.017847
-0.0183424
-0.0188121
-0.0192493
-0.0196471
-0.0199989
-0.0202979
-0.0205377
-0.020712
-0.0208149
-0.0208405
-0.0207836
-0.0206394
-0.0204034
-0.0200718
-0.0196413
-0.0191091
-0.0184732
-0.0177319
-0.0168846
-0.0159306
-0.0148704
-0.0137047
-0.0124353
-0.0110638
-0.00959317
-0.00802615
-0.00636641
-0.00461777
-0.00278464
-0.000871579
0.00111636
0.00317403
0.00529592
0.00747644
0.00970979
0.0119901
0.0143115
0.0166679
0.0190535
0.0214622
0.0238882
0.0263257
0.0287689
0.0312129
0.0336522
0.0360815
0.0384961
0.0408914
0.0432629
0.0456058
0.0479166
0.0501917
0.0524278
0.0546216
0.0567703
0.0588713
0.0609222
0.062921
0.0648657
0.0667548
0.068587
0.0703611
0.0720762
0.0737316
0.0753268
0.0768616
0.0783359
0.07975
0.081104
0.0823986
0.0836344
0.0848123
0.0859333
0.0869985
0.0880092
0.0889664
0.0898717
0.0907262
0.0915314
0.0922886
0.0929995
0.0936652
0.0942875
0.0948676
0.0954072
0.0959076