/*--------------------------------*- C++ -*----------------------------------*\
| =========                 |                                                 |
| \\      /  F ield         | OpenFOAM: The Open Source CFD Toolbox           |
|  \\    /   O peration     | Version:  2112                                  |
|   \\  /    A nd           | Website:  www.openfoam.com                      |
|    \\/     M anipulation  |                                                 |
\*---------------------------------------------------------------------------*/
FoamFile
{
    version     2.0;
    format      ascii;
    arch        "LSB;label=32;scalar=64";
    class       surfaceScalarField;
    location    "237";
    object      phi;
}
// * * * * * * * * * * * * * * * * * * * * * * * * * * * * * * * * * * * * * //

dimensions      [0 3 -1 0 0 0 0];

oriented        oriented;

internalField   nonuniform List<scalar> 
24170
(
1.9655e-08
-1.17006e-08
3.03069e-08
-1.06519e-08
3.8823e-08
-8.51614e-09
4.58725e-08
-7.04954e-09
5.17161e-08
-5.8436e-09
5.64168e-08
-4.7007e-09
6.01789e-08
-3.76216e-09
6.31997e-08
-3.02076e-09
6.56451e-08
-2.44539e-09
6.76521e-08
-2.0071e-09
6.93377e-08
-1.68556e-09
7.08094e-08
-1.47171e-09
7.21808e-08
-1.37142e-09
7.35964e-08
-1.41564e-09
7.52876e-08
-1.6912e-09
7.77306e-08
-2.44301e-09
8.19017e-08
-4.17117e-09
-1.17301e-08
9.36318e-08
4.02566e-08
-2.61119e-08
5.45508e-08
-2.49462e-08
6.64324e-08
-2.03977e-08
7.66681e-08
-1.72853e-08
8.53541e-08
-1.45297e-08
9.26979e-08
-1.20445e-08
9.89105e-08
-9.97478e-09
1.04191e-07
-8.3013e-09
1.08714e-07
-6.96859e-09
1.12631e-07
-5.92394e-09
1.16075e-07
-5.12958e-09
1.19171e-07
-4.56815e-09
1.2205e-07
-4.24983e-09
1.24865e-07
-4.23069e-09
1.27831e-07
-4.65724e-09
1.31287e-07
-5.89967e-09
1.35873e-07
-8.75652e-09
-1.57883e-08
1.39931e-07
5.88974e-08
-3.79637e-08
7.37441e-08
-3.97929e-08
8.71171e-08
-3.37707e-08
9.8595e-08
-2.87631e-08
1.08424e-07
-2.43591e-08
1.16884e-07
-2.05039e-08
1.24182e-07
-1.72733e-08
1.30508e-07
-1.46267e-08
1.36027e-07
-1.24881e-08
1.40888e-07
-1.07851e-08
1.45223e-07
-9.46443e-09
1.49155e-07
-8.49961e-09
1.52804e-07
-7.89974e-09
1.56304e-07
-7.72994e-09
1.59798e-07
-8.15175e-09
1.63424e-07
-9.52509e-09
1.67118e-07
-1.2451e-08
-1.79078e-08
1.69238e-07
8.06704e-08
-4.66671e-08
9.43182e-08
-5.34408e-08
1.07851e-07
-4.73033e-08
1.19739e-07
-4.06517e-08
1.30057e-07
-3.46771e-08
1.39044e-07
-2.94904e-08
1.46887e-07
-2.51163e-08
1.53757e-07
-2.14963e-08
1.59808e-07
-1.85392e-08
1.6518e-07
-1.6157e-08
1.69998e-07
-1.42832e-08
1.7438e-07
-1.28811e-08
1.78433e-07
-1.19528e-08
1.8226e-07
-1.15568e-08
1.85942e-07
-1.18338e-08
1.89474e-07
-1.30569e-08
1.92579e-07
-1.55565e-08
-1.95257e-08
1.94197e-07
1.06554e-07
-5.21738e-08
1.1822e-07
-6.51074e-08
1.30993e-07
-6.00764e-08
1.4271e-07
-5.23683e-08
1.53094e-07
-4.50615e-08
1.62258e-07
-3.86537e-08
1.70339e-07
-3.31975e-08
1.77479e-07
-2.86366e-08
1.83814e-07
-2.48742e-08
1.8947e-07
-2.18132e-08
1.94563e-07
-1.93762e-08
1.99198e-07
-1.75157e-08
2.03467e-07
-1.62223e-08
2.07446e-07
-1.55357e-08
2.11167e-07
-1.55545e-08
2.14555e-07
-1.64446e-08
2.17317e-07
-1.8319e-08
-2.10133e-08
2.18805e-07
1.37257e-07
-5.46868e-08
1.46461e-07
-7.4311e-08
1.57783e-07
-7.13987e-08
1.68803e-07
-6.33889e-08
1.78867e-07
-5.51254e-08
1.879e-07
-4.76866e-08
1.95962e-07
-4.12593e-08
2.03151e-07
-3.58253e-08
2.09574e-07
-3.12978e-08
2.1534e-07
-2.7579e-08
2.20549e-07
-2.4585e-08
2.25291e-07
-2.22581e-08
2.29643e-07
-2.05737e-08
2.33653e-07
-1.95456e-08
2.37321e-07
-1.92227e-08
2.40549e-07
-1.96725e-08
2.43092e-07
-2.0862e-08
-2.24941e-08
2.44573e-07
1.73438e-07
-5.45964e-08
1.79855e-07
-8.07279e-08
1.89172e-07
-8.07157e-08
1.98991e-07
-7.32081e-08
2.08334e-07
-6.44691e-08
2.16918e-07
-5.62701e-08
2.24696e-07
-4.90376e-08
2.31708e-07
-4.28372e-08
2.38025e-07
-3.76147e-08
2.43729e-07
-3.32825e-08
2.48899e-07
-2.9756e-08
2.53611e-07
-2.69691e-08
2.57918e-07
-2.48813e-08
2.61851e-07
-2.34782e-08
2.65389e-07
-2.27607e-08
2.68435e-07
-2.27189e-08
2.70808e-07
-2.32351e-08
-2.39949e-08
2.72309e-07
2.15675e-07
-5.2402e-08
2.19137e-07
-8.41904e-08
2.26015e-07
-8.75932e-08
2.3415e-07
-8.13433e-08
2.42354e-07
-7.26737e-08
2.50141e-07
-6.40572e-08
2.57345e-07
-5.6241e-08
2.63932e-07
-4.9424e-08
2.69927e-07
-4.36095e-08
2.75379e-07
-3.87345e-08
2.80344e-07
-3.47211e-08
2.84873e-07
-3.14987e-08
2.89004e-07
-2.90124e-08
2.92748e-07
-2.72214e-08
2.96074e-07
-2.60867e-08
2.98899e-07
-2.55445e-08
3.01103e-07
-2.54385e-08
-2.54876e-08
3.02595e-07
2.64461e-07
-4.86446e-08
2.64979e-07
-8.47085e-08
2.69108e-07
-9.17221e-08
2.75119e-07
-8.73542e-08
2.81757e-07
-7.93113e-08
2.88372e-07
-7.06725e-08
2.94678e-07
-6.25464e-08
3.00559e-07
-5.53059e-08
3.05988e-07
-4.90382e-08
3.10974e-07
-4.37202e-08
3.15543e-07
-3.92898e-08
3.19722e-07
-3.56777e-08
3.23528e-07
-3.28185e-08
3.26957e-07
-3.06507e-08
3.29976e-07
-2.91059e-08
3.3252e-07
-2.80882e-08
3.34514e-07
-2.74327e-08
-2.69077e-08
3.35934e-07
3.202e-07
-4.38586e-08
3.17963e-07
-8.24712e-08
3.19171e-07
-9.29309e-08
3.22687e-07
-9.08702e-08
3.27343e-07
-8.39671e-08
3.32396e-07
-7.5725e-08
3.37452e-07
-6.76029e-08
3.42318e-07
-6.01721e-08
3.46906e-07
-5.36256e-08
3.51181e-07
-4.79952e-08
3.55136e-07
-4.3245e-08
3.58772e-07
-3.93136e-08
3.62085e-07
-3.61315e-08
3.65058e-07
-3.36239e-08
3.67657e-07
-3.17046e-08
3.69832e-07
-3.02633e-08
3.71543e-07
-2.91443e-08
-2.81631e-08
3.72799e-07
3.83169e-07
-3.85246e-08
3.7852e-07
-7.78226e-08
3.76794e-07
-9.12046e-08
3.77547e-07
-9.16234e-08
3.79851e-07
-8.62709e-08
3.82955e-07
-7.88293e-08
3.86397e-07
-7.10446e-08
3.89912e-07
-6.36875e-08
3.93356e-07
-5.70689e-08
3.96648e-07
-5.12874e-08
3.99746e-07
-4.63429e-08
4.02622e-07
-4.21897e-08
4.05252e-07
-3.87613e-08
4.07606e-07
-3.59783e-08
4.09649e-07
-3.37474e-08
4.11343e-07
-3.19571e-08
4.12668e-07
-3.04696e-08
-2.91397e-08
4.13645e-07
3.77906e-07
-3.37402e-08
3.72527e-07
-7.24439e-08
3.68913e-07
-8.75898e-08
3.67312e-07
-9.00224e-08
3.67222e-07
-8.61813e-08
3.68073e-07
-7.96802e-08
3.69459e-07
-7.24306e-08
3.71122e-07
-6.53507e-08
3.72903e-07
-5.88493e-08
3.74701e-07
-5.30857e-08
3.76453e-07
-4.80952e-08
3.78114e-07
-4.38511e-08
3.79648e-07
-4.0295e-08
3.8102e-07
-3.735e-08
3.82197e-07
-3.49243e-08
3.83151e-07
-3.2912e-08
3.83872e-07
-3.11901e-08
-2.96533e-08
3.84386e-07
4.9995e-07
-2.84143e-08
4.92422e-07
-6.49163e-08
4.86072e-07
-8.12392e-08
4.81706e-07
-8.56571e-08
4.79132e-07
-8.36072e-08
4.77859e-07
-7.84068e-08
4.77454e-07
-7.20261e-08
4.77609e-07
-6.55058e-08
4.78112e-07
-5.93519e-08
4.78817e-07
-5.37909e-08
4.79624e-07
-4.89017e-08
4.80456e-07
-4.46838e-08
4.81255e-07
-4.1094e-08
4.8197e-07
-3.80646e-08
4.82558e-07
-3.55121e-08
4.82988e-07
-3.33422e-08
4.83251e-07
-3.14527e-08
-2.97655e-08
4.83363e-07
6.62109e-07
-2.27757e-08
6.52354e-07
-5.5162e-08
6.42721e-07
-7.16061e-08
6.34675e-07
-7.76109e-08
6.28493e-07
-7.74247e-08
6.23919e-07
-7.38331e-08
6.20583e-07
-6.86899e-08
6.18162e-07
-6.30853e-08
6.16408e-07
-5.75975e-08
6.15131e-07
-5.25141e-08
6.14189e-07
-4.79594e-08
6.1347e-07
-4.39649e-08
6.12885e-07
-4.05093e-08
6.12362e-07
-3.75414e-08
6.11843e-07
-3.49931e-08
6.11288e-07
-3.27875e-08
6.10681e-07
-3.08457e-08
-2.91087e-08
6.10024e-07
8.74728e-07
-1.70374e-08
8.62953e-07
-4.33872e-08
8.49744e-07
-5.83971e-08
8.37239e-07
-6.51058e-08
8.26299e-07
-6.64851e-08
8.17077e-07
-6.46108e-08
8.09401e-07
-6.10141e-08
8.03021e-07
-5.67052e-08
7.97695e-07
-5.22714e-08
7.93213e-07
-4.80315e-08
7.89397e-07
-4.41435e-08
7.86101e-07
-4.0669e-08
7.83204e-07
-3.7612e-08
7.80605e-07
-3.49432e-08
7.78227e-07
-3.26151e-08
7.76012e-07
-3.05723e-08
7.73926e-07
-2.87592e-08
-2.71333e-08
7.7195e-07
1.14729e-06
-1.12976e-08
1.13384e-06
-2.99361e-08
1.11709e-06
-4.16463e-08
1.09969e-06
-4.77064e-08
1.08309e-06
-4.98829e-08
1.06796e-06
-4.94787e-08
1.05448e-06
-4.75361e-08
1.0426e-06
-4.48259e-08
1.03217e-06
-4.18404e-08
1.02301e-06
-3.88678e-08
1.01493e-06
-3.6066e-08
1.00777e-06
-3.35099e-08
1.00138e-06
-3.12222e-08
9.9563e-07
-2.91945e-08
9.90417e-07
-2.74016e-08
9.85655e-07
-2.58103e-08
9.81283e-07
-2.43874e-08
-2.31058e-08
9.77256e-07
1.48365e-06
-5.40883e-09
1.46869e-06
-1.4973e-08
1.44857e-06
-2.15241e-08
1.4262e-06
-2.53395e-08
1.4035e-06
-2.71849e-08
1.38166e-06
-2.76326e-08
1.36129e-06
-2.71637e-08
1.34264e-06
-2.61776e-08
1.32575e-06
-2.49521e-08
1.31054e-06
-2.36596e-08
1.29688e-06
-2.24005e-08
1.28459e-06
-2.12274e-08
1.27353e-06
-2.01617e-08
1.26354e-06
-1.92052e-08
1.25449e-06
-1.83488e-08
1.24626e-06
-1.75787e-08
1.23875e-06
-1.68808e-08
-1.62437e-08
1.23189e-06
1.87154e-06
1.11644e-09
1.8547e-06
1.8689e-09
1.83105e-06
2.12946e-09
1.80369e-06
2.02229e-09
1.7749e-06
1.6004e-09
1.74629e-06
9.81733e-10
1.71886e-06
2.63674e-10
1.69318e-06
-4.96317e-10
1.66949e-06
-1.26223e-09
1.64784e-06
-2.00955e-09
1.62816e-06
-2.72216e-09
1.61032e-06
-3.38967e-09
1.59417e-06
-4.00526e-09
1.57953e-06
-4.56437e-09
1.56624e-06
-5.06434e-09
1.55417e-06
-5.50455e-09
1.54317e-06
-5.88668e-09
-6.21224e-09
1.53314e-06
2.2621e-06
7.77108e-09
2.24224e-06
2.17292e-08
2.21378e-06
3.05836e-08
2.18084e-06
3.49665e-08
2.14625e-06
3.61885e-08
2.11194e-06
3.52923e-08
2.07911e-06
3.30971e-08
2.0484e-06
3.02162e-08
2.02007e-06
2.70581e-08
1.99419e-06
2.38747e-08
1.97066e-06
2.08132e-08
1.94931e-06
1.79544e-08
1.92997e-06
1.53361e-08
1.91244e-06
1.29699e-08
1.89652e-06
1.0852e-08
1.88205e-06
8.96956e-09
1.86885e-06
7.30456e-09
5.8337e-09
1.85681e-06
1.5541e-06
1.56266e-08
1.53643e-06
3.93989e-08
1.51403e-06
5.29932e-08
1.49019e-06
5.88028e-08
1.46684e-06
5.95388e-08
1.44496e-06
5.71668e-08
1.42497e-06
5.30904e-08
1.40693e-06
4.82537e-08
1.39076e-06
4.32286e-08
1.3763e-06
3.83371e-08
1.36336e-06
3.3749e-08
1.35178e-06
2.9543e-08
1.34137e-06
2.57437e-08
1.33199e-06
2.2345e-08
1.32352e-06
1.93247e-08
1.31584e-06
1.66525e-08
1.30885e-06
1.42947e-08
1.22161e-08
1.30247e-06
1.23263e-06
2.38785e-08
1.2157e-06
5.6325e-08
1.19667e-06
7.20296e-08
1.17855e-06
7.69178e-08
1.16248e-06
7.5608e-08
1.14867e-06
7.09785e-08
1.13692e-06
6.48398e-08
1.12692e-06
5.82552e-08
1.11836e-06
5.17911e-08
1.11097e-06
4.5727e-08
1.10453e-06
4.01843e-08
1.09888e-06
3.51982e-08
1.09387e-06
3.07571e-08
1.08938e-06
2.68264e-08
1.08535e-06
2.33612e-08
1.08169e-06
2.03139e-08
1.07834e-06
1.76377e-08
1.52867e-08
1.07527e-06
9.49358e-07
3.28798e-08
9.34674e-07
7.10086e-08
9.21157e-07
8.5547e-08
9.10533e-07
8.75415e-08
9.02762e-07
8.33786e-08
8.97271e-07
7.64703e-08
8.93428e-07
6.86825e-08
8.90728e-07
6.09545e-08
8.88807e-07
5.37128e-08
8.87407e-07
4.71264e-08
8.86355e-07
4.1237e-08
8.85529e-07
3.6024e-08
8.84849e-07
3.14372e-08
8.8426e-07
2.74155e-08
8.83725e-07
2.38958e-08
8.83221e-07
2.08181e-08
8.82731e-07
1.81278e-08
1.57733e-08
8.82244e-07
7.11884e-07
4.19404e-08
7.01563e-07
8.13305e-08
6.95303e-07
9.18064e-08
6.92851e-07
8.99939e-08
6.93066e-07
8.3163e-08
6.94883e-07
7.46537e-08
6.97537e-07
6.60285e-08
7.0055e-07
5.79412e-08
7.03638e-07
5.06253e-08
7.06634e-07
4.41298e-08
7.09449e-07
3.8422e-08
7.12038e-07
3.34354e-08
7.14383e-07
2.9092e-08
7.16485e-07
2.5314e-08
7.18352e-07
2.20286e-08
7.19999e-07
1.91707e-08
7.21443e-07
1.66836e-08
1.45157e-08
7.22701e-07
5.20148e-07
4.96636e-08
5.16167e-07
8.53114e-08
5.17805e-07
9.0169e-08
5.22892e-07
8.49071e-08
5.29672e-07
7.63821e-08
5.37012e-07
6.73142e-08
5.44286e-07
5.87546e-08
5.51184e-07
5.10434e-08
5.57563e-07
4.42458e-08
5.63373e-07
3.83198e-08
5.68612e-07
3.31831e-08
5.73305e-07
2.87425e-08
5.7749e-07
2.49072e-08
5.8121e-07
2.1594e-08
5.84509e-07
1.87292e-08
5.87431e-07
1.62489e-08
5.90015e-07
1.40997e-08
1.22341e-08
5.92296e-07
3.70181e-07
5.42955e-08
3.73628e-07
8.18652e-08
3.82507e-07
8.129e-08
3.93517e-07
7.38969e-08
4.04891e-07
6.5008e-08
4.15777e-07
5.64281e-08
4.25836e-07
4.86958e-08
4.34962e-07
4.19176e-08
4.43154e-07
3.60538e-08
4.5046e-07
3.10133e-08
4.56951e-07
2.66919e-08
4.62704e-07
2.29894e-08
4.67797e-07
1.9815e-08
4.72301e-07
1.70899e-08
4.76284e-07
1.47463e-08
4.79806e-07
1.27264e-08
4.82922e-07
1.09834e-08
9.47784e-09
4.85679e-07
2.56172e-07
5.41828e-08
2.6689e-07
7.11474e-08
2.81374e-07
6.68065e-08
2.96253e-07
5.90174e-08
3.1022e-07
5.10417e-08
3.22885e-07
4.37623e-08
3.34208e-07
3.73732e-08
3.44252e-07
3.18737e-08
3.53122e-07
2.71837e-08
3.60937e-07
2.31986e-08
3.67814e-07
1.98148e-08
3.73864e-07
1.69391e-08
3.79188e-07
1.44912e-08
3.83875e-07
1.24028e-08
3.88005e-07
1.06168e-08
3.91646e-07
9.08486e-09
3.94861e-07
7.76833e-09
6.6385e-09
3.977e-07
1.71752e-07
4.81416e-08
1.88431e-07
5.44685e-08
2.0631e-07
4.89278e-08
2.22996e-07
4.23304e-08
2.37841e-07
3.61977e-08
2.50898e-07
3.07049e-08
2.62341e-07
2.59304e-08
2.72341e-07
2.18733e-08
2.81069e-07
1.84558e-08
2.88684e-07
1.55833e-08
2.95332e-07
1.31674e-08
3.01139e-07
1.11319e-08
3.06217e-07
9.41278e-09
3.10663e-07
7.95679e-09
3.1456e-07
6.72005e-09
3.17979e-07
5.66537e-09
3.20985e-07
4.76241e-09
3.99393e-09
3.2363e-07
1.1076e-07
3.56678e-08
1.31098e-07
3.41302e-08
1.49845e-07
3.01807e-08
1.66492e-07
2.5684e-08
1.80865e-07
2.18248e-08
1.93272e-07
1.82976e-08
2.03983e-07
1.5219e-08
2.13222e-07
1.26342e-08
2.21192e-07
1.0486e-08
2.28073e-07
8.70253e-09
2.3402e-07
7.2199e-09
2.39168e-07
5.98442e-09
2.43629e-07
4.95194e-09
2.47499e-07
4.08654e-09
2.5086e-07
3.35889e-09
2.53782e-07
2.74397e-09
2.56325e-07
2.21916e-09
1.77585e-09
2.58543e-07
6.73361e-08
1.73234e-08
8.74866e-08
1.39798e-08
1.04413e-07
1.32539e-08
1.19336e-07
1.07615e-08
1.32065e-07
9.09579e-09
1.42879e-07
7.483e-09
1.52045e-07
6.05301e-09
1.59805e-07
4.87465e-09
1.66376e-07
3.91539e-09
1.71944e-07
3.13396e-09
1.76667e-07
2.4965e-09
1.80677e-07
1.9753e-09
1.84081e-07
1.54803e-09
1.8697e-07
1.19688e-09
1.89422e-07
9.07501e-10
1.91498e-07
6.67755e-10
1.93252e-07
4.64479e-10
2.91676e-10
1.94737e-07
3.11158e-08
4.50956e-08
5.83495e-08
6.9111e-08
7.82068e-08
8.56898e-08
9.17428e-08
9.66174e-08
1.00533e-07
1.03667e-07
1.06163e-07
1.08139e-07
1.09687e-07
1.10884e-07
1.11791e-07
1.12459e-07
1.12923e-07
1.13215e-07
1.26742e-09
-1.26737e-09
3.48285e-09
-2.21538e-09
5.70175e-09
-2.21881e-09
7.41109e-09
-1.70932e-09
8.39211e-09
-9.80928e-10
8.60165e-09
-2.09554e-10
8.10086e-09
5.00897e-10
6.99757e-09
1.10325e-09
5.40088e-09
1.59679e-09
3.39561e-09
2.00517e-09
1.03892e-09
2.35677e-09
-1.64245e-09
2.68122e-09
-4.64932e-09
3.00694e-09
-8.0018e-09
3.35229e-09
-1.17318e-08
3.73011e-09
-1.58795e-08
4.14752e-09
-2.04824e-08
4.60303e-09
-2.55718e-08
5.08909e-09
-3.11655e-08
5.59391e-09
-3.72693e-08
6.10347e-09
-4.38723e-08
6.60317e-09
-5.09514e-08
7.07875e-09
-5.84668e-08
7.51552e-09
-6.63671e-08
7.89985e-09
-7.45873e-08
8.22022e-09
-8.30558e-08
8.46805e-09
-9.16932e-08
8.63751e-09
-1.0042e-07
8.72591e-09
-1.09152e-07
8.73298e-09
-1.17814e-07
8.66104e-09
-1.26328e-07
8.51431e-09
-1.34627e-07
8.29876e-09
-1.42648e-07
8.02117e-09
-1.50337e-07
7.68903e-09
-1.57647e-07
7.30986e-09
-1.64538e-07
6.89126e-09
-1.70978e-07
6.44029e-09
-1.76942e-07
5.96357e-09
-1.82408e-07
5.4669e-09
-1.87364e-07
4.95543e-09
-1.91797e-07
4.43327e-09
-1.95701e-07
3.90383e-09
-1.9907e-07
3.36965e-09
-2.01903e-07
2.83285e-09
-2.04197e-07
2.29508e-09
-2.05955e-07
1.75757e-09
-2.07175e-07
1.22059e-09
-2.0786e-07
6.85123e-10
-2.0802e-07
1.6014e-10
-2.07689e-07
-3.30551e-10
-2.06914e-07
-7.74669e-10
-2.05731e-07
-1.18319e-09
-2.04163e-07
-1.56695e-09
-2.02232e-07
-1.93111e-09
-1.99953e-07
-2.27833e-09
-1.97344e-07
-2.60961e-09
-1.94416e-07
-2.92674e-09
-1.91188e-07
-3.22796e-09
-1.87673e-07
-3.5139e-09
-1.83886e-07
-3.7861e-09
-1.79843e-07
-4.04271e-09
-1.75557e-07
-4.2847e-09
-1.71045e-07
-4.51173e-09
-1.6632e-07
-4.72401e-09
-1.61397e-07
-4.92164e-09
-1.56291e-07
-5.10491e-09
-1.51016e-07
-5.27393e-09
-1.45587e-07
-5.42889e-09
-1.40016e-07
-5.56971e-09
-1.34319e-07
-5.69622e-09
-1.28509e-07
-5.80844e-09
-1.22601e-07
-5.90731e-09
-1.16607e-07
-5.99321e-09
-1.10539e-07
-6.06645e-09
-1.04411e-07
-6.12721e-09
-9.8234e-08
-6.17585e-09
-9.202e-08
-6.21266e-09
-8.57805e-08
-6.23806e-09
-7.95267e-08
-6.25237e-09
-7.32689e-08
-6.25601e-09
-6.7018e-08
-6.24927e-09
-6.07835e-08
-6.2326e-09
-5.45755e-08
-6.20625e-09
-4.84028e-08
-6.17063e-09
-4.2275e-08
-6.12594e-09
-3.62004e-08
-6.07256e-09
-3.01881e-08
-6.01064e-09
-2.42458e-08
-5.94061e-09
-1.83812e-08
-5.86342e-09
-1.26002e-08
-5.77976e-09
-6.90998e-09
-5.68873e-09
-1.32674e-09
-5.58131e-09
4.14955e-09
-5.47419e-09
9.52082e-09
-5.36905e-09
1.47705e-08
-5.24748e-09
1.98913e-08
-5.11848e-09
2.4881e-08
-4.98751e-09
2.97393e-08
-4.85605e-09
3.4466e-08
-4.72447e-09
3.90609e-08
-4.5926e-09
4.35236e-08
-4.46038e-09
4.78537e-08
-4.32759e-09
5.20505e-08
-4.19431e-09
5.61137e-08
-4.06039e-09
6.00423e-08
-3.92612e-09
6.38363e-08
-3.79138e-09
6.7495e-08
-3.6566e-09
7.10188e-08
-3.52171e-09
7.44076e-08
-3.38715e-09
7.7662e-08
-3.25284e-09
8.07823e-08
-3.11923e-09
8.37696e-08
-2.98622e-09
8.66245e-08
-2.85427e-09
8.93486e-08
-2.72329e-09
9.19426e-08
-2.59372e-09
9.44086e-08
-2.46549e-09
9.67476e-08
-2.33897e-09
9.89618e-08
-2.21409e-09
1.01053e-07
-2.09122e-09
1.03023e-07
-1.97039e-09
1.04875e-07
-1.8519e-09
1.06611e-07
-1.73568e-09
1.08234e-07
-1.62201e-09
1.09746e-07
-1.5108e-09
1.11148e-07
-1.4024e-09
1.12446e-07
-1.2967e-09
1.1364e-07
-1.19399e-09
1.14734e-07
-1.09413e-09
1.15731e-07
-9.97359e-10
1.16634e-07
-9.03524e-10
1.17447e-07
-8.12876e-10
1.18172e-07
-7.25268e-10
1.18812e-07
-6.40935e-10
1.19371e-07
-5.59678e-10
1.19852e-07
-4.81657e-10
1.20258e-07
-4.06674e-10
1.20592e-07
-3.34818e-10
1.20856e-07
-2.65867e-10
1.21055e-07
-1.9988e-10
1.2119e-07
-1.366e-10
1.21264e-07
-7.56524e-11
1.21277e-07
-1.46396e-11
1.2123e-07
4.6131e-11
1.21126e-07
1.02727e-10
1.20971e-07
1.53981e-10
1.20769e-07
2.00765e-10
1.20525e-07
2.43937e-10
1.2024e-07
2.84039e-10
1.19918e-07
3.21409e-10
1.19561e-07
3.56452e-10
1.19171e-07
3.89403e-10
1.1875e-07
4.20311e-10
1.183e-07
4.49245e-10
1.17823e-07
4.76337e-10
1.17321e-07
5.01776e-10
1.16794e-07
5.25797e-10
1.16245e-07
5.48578e-10
1.15674e-07
5.70318e-10
1.15083e-07
5.91232e-10
1.14471e-07
6.11508e-10
1.13839e-07
6.31379e-10
1.13187e-07
6.5121e-10
1.12516e-07
6.7148e-10
1.11822e-07
6.92772e-10
1.11106e-07
7.1582e-10
1.10364e-07
7.41583e-10
1.09593e-07
7.71304e-10
1.08786e-07
8.06627e-10
1.07936e-07
8.49747e-10
1.07032e-07
9.03646e-10
1.06059e-07
9.7254e-10
1.04997e-07
1.06229e-09
1.03815e-07
1.18168e-09
1.02471e-07
1.34373e-09
1.00903e-07
1.56818e-09
9.9009e-08
1.89367e-09
9.66481e-08
2.36073e-09
9.34754e-08
3.17262e-09
8.92003e-08
4.27499e-09
7.27419e-09
8.19261e-08
1.38873e-09
-2.65603e-09
3.05234e-09
-3.87894e-09
3.92919e-09
-3.09555e-09
3.79188e-09
-1.572e-09
2.69024e-09
1.20818e-10
7.20855e-10
1.75981e-09
-2.03049e-09
3.25234e-09
-5.49837e-09
4.57108e-09
-9.63005e-09
5.72855e-09
-1.43858e-08
6.76085e-09
-1.9741e-08
7.71206e-09
-2.56821e-08
8.62216e-09
-3.21963e-08
9.52116e-09
-3.9272e-08
1.04278e-08
-4.68913e-08
1.13495e-08
-5.50257e-08
1.22818e-08
-6.3633e-08
1.32104e-08
-7.26583e-08
1.41142e-08
-8.20326e-08
1.49684e-08
-9.16757e-08
1.57464e-08
-1.01495e-07
1.64227e-08
-1.11393e-07
1.69764e-08
-1.2127e-07
1.73925e-08
-1.31031e-07
1.76611e-08
-1.40589e-07
1.77775e-08
-1.49862e-07
1.77416e-08
-1.58783e-07
1.75579e-08
-1.67292e-07
1.72346e-08
-1.75342e-07
1.67829e-08
-1.82896e-07
1.62156e-08
-1.89929e-07
1.55472e-08
-1.96423e-07
1.47923e-08
-2.02367e-07
1.39656e-08
-2.07759e-07
1.3081e-08
-2.12601e-07
1.21516e-08
-2.16899e-07
1.11889e-08
-2.20661e-07
1.02032e-08
-2.23901e-07
9.20333e-09
-2.26631e-07
8.19678e-09
-2.28865e-07
7.18971e-09
-2.30619e-07
6.18721e-09
-2.31908e-07
5.19338e-09
-2.3275e-07
4.21161e-09
-2.33162e-07
3.24471e-09
-2.33162e-07
2.29511e-09
-2.32769e-07
1.3651e-09
-2.32006e-07
4.58101e-10
-2.30901e-07
-4.19705e-10
-2.29479e-07
-1.26168e-09
-2.27741e-07
-2.06874e-09
-2.2567e-07
-2.84543e-09
-2.2326e-07
-3.59278e-09
-2.20516e-07
-4.31107e-09
-2.17446e-07
-5.00089e-09
-2.14061e-07
-5.66269e-09
-2.10374e-07
-6.2967e-09
-2.06397e-07
-6.9031e-09
-2.02143e-07
-7.48149e-09
-1.97624e-07
-8.03189e-09
-1.92856e-07
-8.55437e-09
-1.87849e-07
-9.04852e-09
-1.82619e-07
-9.51439e-09
-1.77178e-07
-9.95185e-09
-1.71541e-07
-1.03609e-08
-1.6572e-07
-1.07417e-08
-1.5973e-07
-1.10947e-08
-1.53583e-07
-1.14202e-08
-1.47293e-07
-1.17184e-08
-1.40872e-07
-1.19894e-08
-1.34335e-07
-1.22333e-08
-1.27692e-07
-1.24502e-08
-1.20958e-07
-1.26408e-08
-1.14145e-07
-1.28061e-08
-1.07264e-07
-1.29468e-08
-1.00327e-07
-1.30632e-08
-9.3346e-08
-1.31559e-08
-8.63321e-08
-1.32257e-08
-7.92961e-08
-1.32731e-08
-7.22487e-08
-1.32988e-08
-6.52e-08
-1.33036e-08
-5.81601e-08
-1.32881e-08
-5.11385e-08
-1.3253e-08
-4.41447e-08
-1.31989e-08
-3.71874e-08
-1.31266e-08
-3.02757e-08
-1.30365e-08
-2.34176e-08
-1.29293e-08
-1.66215e-08
-1.28056e-08
-9.89503e-09
-1.26661e-08
-3.24584e-09
-1.25118e-08
3.31952e-09
-1.23444e-08
9.79692e-09
-1.21651e-08
1.619e-08
-1.19732e-08
2.24887e-08
-1.17715e-08
2.86798e-08
-1.15588e-08
3.47665e-08
-1.13328e-08
4.07469e-08
-1.10974e-08
4.66172e-08
-1.08564e-08
5.23743e-08
-1.06116e-08
5.80155e-08
-1.03641e-08
6.35387e-08
-1.01142e-08
6.8942e-08
-9.86199e-09
7.42237e-08
-9.60763e-09
7.93826e-08
-9.35126e-09
8.44172e-08
-9.09308e-09
8.93264e-08
-8.83333e-09
9.41091e-08
-8.57231e-09
9.87647e-08
-8.31039e-09
1.03292e-07
-8.04792e-09
1.07692e-07
-7.78524e-09
1.11963e-07
-7.52269e-09
1.16105e-07
-7.26062e-09
1.20119e-07
-6.99935e-09
1.24004e-07
-6.73925e-09
1.27762e-07
-6.48062e-09
1.31393e-07
-6.22381e-09
1.34897e-07
-5.96911e-09
1.38275e-07
-5.71685e-09
1.41528e-07
-5.46728e-09
1.44657e-07
-5.22071e-09
1.47664e-07
-4.97742e-09
1.5055e-07
-4.73772e-09
1.53316e-07
-4.50179e-09
1.55965e-07
-4.26991e-09
1.58497e-07
-4.04224e-09
1.60914e-07
-3.81903e-09
1.63218e-07
-3.60039e-09
1.65411e-07
-3.38655e-09
1.67494e-07
-3.17759e-09
1.69471e-07
-2.9737e-09
1.71342e-07
-2.77495e-09
1.7311e-07
-2.58148e-09
1.74778e-07
-2.39334e-09
1.76347e-07
-2.21065e-09
1.7782e-07
-2.03336e-09
1.79199e-07
-1.86156e-09
1.80487e-07
-1.6952e-09
1.81685e-07
-1.53425e-09
1.82797e-07
-1.37863e-09
1.83824e-07
-1.22827e-09
1.84769e-07
-1.08298e-09
1.85634e-07
-9.42304e-10
1.86424e-07
-8.06038e-10
1.87143e-07
-6.74173e-10
1.87792e-07
-5.47309e-10
1.88371e-07
-4.26299e-10
1.88882e-07
-3.11277e-10
1.89327e-07
-2.01899e-10
1.89708e-07
-9.77443e-11
1.90027e-07
1.92616e-12
1.90286e-07
9.72263e-11
1.90486e-07
1.87928e-10
1.90632e-07
2.74227e-10
1.90724e-07
3.56444e-10
1.90765e-07
4.34856e-10
1.90756e-07
5.09814e-10
1.907e-07
5.81662e-10
1.90597e-07
6.50699e-10
1.9045e-07
7.1721e-10
1.90259e-07
7.81587e-10
1.90026e-07
8.44301e-10
1.89751e-07
9.05947e-10
1.89434e-07
9.67256e-10
1.89076e-07
1.02916e-09
1.88676e-07
1.09281e-09
1.88231e-07
1.15967e-09
1.87741e-07
1.23167e-09
1.87201e-07
1.31135e-09
1.86605e-07
1.40203e-09
1.85946e-07
1.50814e-09
1.85214e-07
1.63576e-09
1.84393e-07
1.79333e-09
1.83462e-07
1.99264e-09
1.82393e-07
2.2511e-09
1.81142e-07
2.59395e-09
1.79649e-07
3.06158e-09
1.77825e-07
3.71712e-09
1.75511e-07
4.67463e-09
1.72552e-07
6.13205e-09
1.68369e-07
8.45775e-09
1.25227e-08
1.63121e-07
4.77596e-10
-3.13357e-09
4.47868e-11
-3.44609e-09
-1.55523e-09
-1.49546e-09
-4.08409e-09
9.56866e-10
-7.36098e-09
3.39776e-09
-1.12983e-08
5.6971e-09
-1.58624e-08
7.81648e-09
-2.10419e-08
9.75059e-09
-2.68298e-08
1.15164e-08
-3.32147e-08
1.31457e-08
-4.01768e-08
1.46742e-08
-4.76862e-08
1.61315e-08
-5.57001e-08
1.7535e-08
-6.41606e-08
1.88882e-08
-7.29938e-08
2.01828e-08
-8.21132e-08
2.1401e-08
-9.1422e-08
2.25193e-08
-1.0082e-07
2.35116e-08
-1.10204e-07
2.43528e-08
-1.19479e-07
2.50215e-08
-1.28558e-07
2.5502e-08
-1.37367e-07
2.57849e-08
-1.45842e-07
2.58675e-08
-1.53934e-07
2.57528e-08
-1.61605e-07
2.54487e-08
-1.68831e-07
2.4967e-08
-1.75595e-07
2.43224e-08
-1.81892e-07
2.35316e-08
-1.87721e-07
2.26122e-08
-1.93088e-07
2.15822e-08
-1.98e-07
2.04589e-08
-2.02467e-07
1.92591e-08
-2.06499e-07
1.79981e-08
-2.10108e-07
1.66899e-08
-2.13303e-07
1.53471e-08
-2.16095e-07
1.39805e-08
-2.18492e-07
1.25998e-08
-2.20501e-07
1.12128e-08
-2.22131e-07
9.82659e-09
-2.23388e-07
8.44677e-09
-2.24279e-07
7.07822e-09
-2.24811e-07
5.72503e-09
-2.2499e-07
4.39078e-09
-2.24824e-07
3.07861e-09
-2.2432e-07
1.7914e-09
-2.23487e-07
5.32045e-10
-2.22332e-07
-6.96294e-10
-2.20861e-07
-1.8907e-09
-2.19073e-07
-3.04983e-09
-2.16967e-07
-4.17453e-09
-2.14546e-07
-5.26565e-09
-2.11816e-07
-6.32253e-09
-2.08783e-07
-7.34418e-09
-2.05454e-07
-8.32976e-09
-2.01838e-07
-9.27853e-09
-1.97944e-07
-1.01899e-08
-1.93784e-07
-1.10631e-08
-1.89368e-07
-1.18978e-08
-1.84706e-07
-1.26932e-08
-1.79811e-07
-1.3449e-08
-1.74695e-07
-1.41649e-08
-1.69368e-07
-1.48404e-08
-1.63844e-07
-1.54754e-08
-1.58135e-07
-1.60698e-08
-1.52253e-07
-1.66235e-08
-1.46211e-07
-1.71369e-08
-1.4002e-07
-1.76105e-08
-1.33693e-07
-1.80447e-08
-1.27243e-07
-1.84396e-08
-1.2068e-07
-1.87956e-08
-1.14017e-07
-1.91129e-08
-1.07265e-07
-1.9392e-08
-1.00437e-07
-1.96341e-08
-9.35433e-08
-1.98402e-08
-8.6595e-08
-2.0011e-08
-7.96031e-08
-2.01473e-08
-7.25783e-08
-2.025e-08
-6.55308e-08
-2.03201e-08
-5.84705e-08
-2.03585e-08
-5.14073e-08
-2.03662e-08
-4.43506e-08
-2.03442e-08
-3.73094e-08
-2.02936e-08
-3.02925e-08
-2.02152e-08
-2.33083e-08
-2.01101e-08
-1.6365e-08
-1.99792e-08
-9.4702e-09
-1.98235e-08
-2.63094e-09
-1.96443e-08
4.14593e-09
-1.94425e-08
1.08539e-08
-1.92193e-08
1.74869e-08
-1.89771e-08
2.40404e-08
-1.8718e-08
3.05122e-08
-1.84445e-08
3.68995e-08
-1.81581e-08
4.31996e-08
-1.78581e-08
4.94112e-08
-1.75436e-08
5.55307e-08
-1.72162e-08
6.15536e-08
-1.68785e-08
6.74754e-08
-1.65326e-08
7.32923e-08
-1.61801e-08
7.9001e-08
-1.5822e-08
8.45989e-08
-1.5459e-08
9.0084e-08
-1.50916e-08
9.54542e-08
-1.47204e-08
1.00708e-07
-1.43458e-08
1.05844e-07
-1.39683e-08
1.10861e-07
-1.35885e-08
1.15759e-07
-1.32069e-08
1.20536e-07
-1.2824e-08
1.25192e-07
-1.24405e-08
1.29726e-07
-1.20567e-08
1.3414e-07
-1.16733e-08
1.38431e-07
-1.12907e-08
1.42602e-07
-1.09094e-08
1.46651e-07
-1.05299e-08
1.50581e-07
-1.01526e-08
1.5439e-07
-9.7781e-09
1.5808e-07
-9.40669e-09
1.61651e-07
-9.03885e-09
1.65105e-07
-8.67497e-09
1.68443e-07
-8.31546e-09
1.71666e-07
-7.96067e-09
1.74776e-07
-7.61096e-09
1.77773e-07
-7.26662e-09
1.80659e-07
-6.92796e-09
1.83435e-07
-6.59525e-09
1.86104e-07
-6.26873e-09
1.88666e-07
-5.94863e-09
1.91124e-07
-5.63519e-09
1.93479e-07
-5.32858e-09
1.95732e-07
-5.02898e-09
1.97887e-07
-4.73651e-09
1.99945e-07
-4.45129e-09
2.01907e-07
-4.17341e-09
2.03777e-07
-3.90295e-09
2.05554e-07
-3.63996e-09
2.07243e-07
-3.38444e-09
2.08845e-07
-3.13639e-09
2.10361e-07
-2.89576e-09
2.11794e-07
-2.66247e-09
2.13147e-07
-2.43638e-09
2.1442e-07
-2.21718e-09
2.15619e-07
-2.005e-09
2.16744e-07
-1.8e-09
2.17798e-07
-1.60212e-09
2.18782e-07
-1.41156e-09
2.19699e-07
-1.2284e-09
2.20549e-07
-1.05252e-09
2.21335e-07
-8.8367e-10
2.22058e-07
-7.21501e-10
2.2272e-07
-5.65659e-10
2.23324e-07
-4.15969e-10
2.2387e-07
-2.72277e-10
2.2436e-07
-1.3429e-10
2.24796e-07
-1.57893e-12
2.2518e-07
1.26151e-10
2.25512e-07
2.49162e-10
2.25794e-07
3.67895e-10
2.26028e-07
4.82826e-10
2.26215e-07
5.9452e-10
2.26355e-07
7.03656e-10
2.2645e-07
8.11083e-10
2.26499e-07
9.17871e-10
2.26503e-07
1.02533e-09
2.2646e-07
1.1351e-09
2.2637e-07
1.2493e-09
2.26231e-07
1.37069e-09
2.26039e-07
1.50291e-09
2.2579e-07
1.65069e-09
2.25478e-07
1.82039e-09
2.25093e-07
2.02064e-09
2.24623e-07
2.26338e-09
2.2405e-07
2.56518e-09
2.23351e-07
2.95017e-09
2.22492e-07
3.45292e-09
2.21425e-07
4.12809e-09
2.20086e-07
5.05598e-09
2.18374e-07
6.38653e-09
2.16188e-07
8.31786e-09
2.13328e-07
1.13178e-08
1.59014e-08
2.0995e-07
-8.66646e-10
-2.26689e-09
-3.48324e-09
-8.29497e-10
-7.17294e-09
2.19428e-09
-1.15252e-08
5.30913e-09
-1.63928e-08
8.26534e-09
-2.17292e-08
1.10335e-08
-2.75248e-08
1.36121e-08
-3.37812e-08
1.6007e-08
-4.04955e-08
1.82307e-08
-4.76513e-08
2.03014e-08
-5.52135e-08
2.22365e-08
-6.31294e-08
2.40473e-08
-7.13297e-08
2.57353e-08
-7.97331e-08
2.72915e-08
-8.82498e-08
2.86995e-08
-9.67873e-08
2.99384e-08
-1.05255e-07
3.09867e-08
-1.13569e-07
3.18253e-08
-1.21656e-07
3.244e-08
-1.29457e-07
3.28225e-08
-1.36926e-07
3.29712e-08
-1.44031e-07
3.28901e-08
-1.50752e-07
3.25884e-08
-1.57078e-07
3.2079e-08
-1.63007e-07
3.13778e-08
-1.68543e-07
3.05025e-08
-1.73692e-07
2.94719e-08
-1.78466e-07
2.83047e-08
-1.82873e-07
2.70196e-08
-1.86925e-07
2.56344e-08
-1.90632e-07
2.41655e-08
-1.94001e-07
2.26284e-08
-1.9704e-07
2.10369e-08
-1.99754e-07
1.94035e-08
-2.02146e-07
1.77393e-08
-2.04219e-07
1.60541e-08
-2.05976e-07
1.43565e-08
-2.07417e-07
1.26538e-08
-2.08543e-07
1.09525e-08
-2.09355e-07
9.2582e-09
-2.09852e-07
7.57586e-09
-2.10037e-07
5.90979e-09
-2.0991e-07
4.26386e-09
-2.09473e-07
2.64159e-09
-2.08728e-07
1.04626e-09
-2.07677e-07
-5.19052e-10
-2.06321e-07
-2.05156e-09
-2.04663e-07
-3.54904e-09
-2.02702e-07
-5.01003e-09
-2.00443e-07
-6.43367e-09
-1.9789e-07
-7.81897e-09
-1.95048e-07
-9.1644e-09
-1.91923e-07
-1.04683e-08
-1.88524e-07
-1.17291e-08
-1.84857e-07
-1.29453e-08
-1.80931e-07
-1.41155e-08
-1.76755e-07
-1.52385e-08
-1.7234e-07
-1.63133e-08
-1.67694e-07
-1.73388e-08
-1.62828e-07
-1.83143e-08
-1.57754e-07
-1.9239e-08
-1.52482e-07
-2.01124e-08
-1.47023e-07
-2.09341e-08
-1.41389e-07
-2.17039e-08
-1.3559e-07
-2.24217e-08
-1.29639e-07
-2.30875e-08
-1.23548e-07
-2.37018e-08
-1.17327e-07
-2.42654e-08
-1.10988e-07
-2.47785e-08
-1.04542e-07
-2.52414e-08
-9.79997e-08
-2.56547e-08
-9.13726e-08
-2.60188e-08
-8.46715e-08
-2.6335e-08
-7.7907e-08
-2.66044e-08
-7.10898e-08
-2.6828e-08
-6.42299e-08
-2.70069e-08
-5.73374e-08
-2.71422e-08
-5.04221e-08
-2.72351e-08
-4.34933e-08
-2.72869e-08
-3.65603e-08
-2.72989e-08
-2.96318e-08
-2.72723e-08
-2.27164e-08
-2.72085e-08
-1.58223e-08
-2.71089e-08
-8.95732e-09
-2.69746e-08
-2.12873e-09
-2.68073e-08
4.6563e-09
-2.66081e-08
1.13908e-08
-2.63784e-08
1.80685e-08
-2.61198e-08
2.46838e-08
-2.58344e-08
3.12316e-08
-2.55246e-08
3.77076e-08
-2.51936e-08
4.4108e-08
-2.48445e-08
5.04298e-08
-2.44794e-08
5.66706e-08
-2.40984e-08
6.28283e-08
-2.37008e-08
6.88999e-08
-2.32873e-08
7.48816e-08
-2.28596e-08
8.07692e-08
-2.24197e-08
8.65589e-08
-2.19692e-08
9.22472e-08
-2.15098e-08
9.78314e-08
-2.10425e-08
1.03309e-07
-2.05684e-08
1.08678e-07
-2.00883e-08
1.13936e-07
-1.96031e-08
1.19082e-07
-1.91137e-08
1.24115e-07
-1.86207e-08
1.29034e-07
-1.81249e-08
1.33837e-07
-1.76271e-08