/*--------------------------------*- C++ -*----------------------------------*\
| =========                 |                                                 |
| \\      /  F ield         | OpenFOAM: The Open Source CFD Toolbox           |
|  \\    /   O peration     | Version:  2112                                  |
|   \\  /    A nd           | Website:  www.openfoam.com                      |
|    \\/     M anipulation  |                                                 |
\*---------------------------------------------------------------------------*/
FoamFile
{
    version     2.0;
    format      ascii;
    arch        "LSB;label=32;scalar=64";
    class       volVectorField;
    location    "237";
    object      U;
}
// * * * * * * * * * * * * * * * * * * * * * * * * * * * * * * * * * * * * * //

dimensions      [0 1 -1 0 0 0 0];

internalField   nonuniform List<vector> 
12225
(
(0.0356766 -0.0379363 0)
(0.0850147 -0.00712827 0)
(0.109969 -0.00436581 0)
(0.133281 -0.00367175 0)
(0.153609 -0.00302182 0)
(0.170115 -0.00238844 0)
(0.183285 -0.0018649 0)
(0.19383 -0.00145229 0)
(0.202325 -0.00113293 0)
(0.209241 -0.000890387 0)
(0.21497 -0.000713607 0)
(0.219861 -0.000598798 0)
(0.224251 -0.000552451 0)
(0.228524 -0.000599149 0)
(0.23326 -0.00080351 0)
(0.239385 -0.00136936 0)
(0.249365 -0.00248726 0)
(0.26565 -0.0134564 0)
(0.103775 -0.0138867 0)
(0.138424 -0.0133008 0)
(0.177887 -0.0110505 0)
(0.210204 -0.00965453 0)
(0.237774 -0.0083805 0)
(0.261153 -0.00713496 0)
(0.280881 -0.006057 0)
(0.297598 -0.00516502 0)
(0.311857 -0.00444245 0)
(0.324129 -0.00387091 0)
(0.334828 -0.00344018 0)
(0.344325 -0.00315442 0)
(0.352988 -0.00304125 0)
(0.361211 -0.00317333 0)
(0.369532 -0.00372383 0)
(0.37865 -0.00513652 0)
(0.390182 -0.00841057 0)
(0.40342 -0.0171134 0)
(0.149725 -0.0188145 0)
(0.178518 -0.0218273 0)
(0.220565 -0.0190055 0)
(0.254403 -0.0167737 0)
(0.283297 -0.0147457 0)
(0.308182 -0.0128519 0)
(0.329598 -0.0112017 0)
(0.348109 -0.00981203 0)
(0.364201 -0.00866681 0)
(0.3783 -0.00774649 0)
(0.390788 -0.00704178 0)
(0.402007 -0.00656307 0)
(0.412287 -0.00635359 0)
(0.421966 -0.00651804 0)
(0.431432 -0.0072845 0)
(0.441044 -0.00917027 0)
(0.451287 -0.0131945 0)
(0.460278 -0.0215714 0)
(0.19687 -0.0264366 0)
(0.219405 -0.0310709 0)
(0.258197 -0.0280055 0)
(0.290629 -0.0249027 0)
(0.318775 -0.0220387 0)
(0.343301 -0.019432 0)
(0.364658 -0.0171567 0)
(0.383325 -0.0152245 0)
(0.399715 -0.0136174 0)
(0.414202 -0.0123138 0)
(0.427123 -0.0113037 0)
(0.438786 -0.0106006 0)
(0.449474 -0.0102558 0)
(0.459458 -0.0103873 0)
(0.468993 -0.011231 0)
(0.478194 -0.0132499 0)
(0.486981 -0.0171524 0)
(0.493615 -0.0238136 0)
(0.247101 -0.0314713 0)
(0.263475 -0.0394722 0)
(0.29636 -0.0370998 0)
(0.325771 -0.0333928 0)
(0.352021 -0.0297772 0)
(0.375229 -0.026488 0)
(0.395668 -0.0235991 0)
(0.413702 -0.0211249 0)
(0.429661 -0.0190491 0)
(0.44386 -0.0173503 0)
(0.456585 -0.0160184 0)
(0.4681 -0.015068 0)
(0.478642 -0.0145518 0)
(0.488415 -0.0145843 0)
(0.497571 -0.0153741 0)
(0.506083 -0.0172711 0)
(0.513681 -0.0206638 0)
(0.518997 -0.0256811 0)
(0.300667 -0.0340746 0)
(0.311167 -0.0463815 0)
(0.337021 -0.0454633 0)
(0.362329 -0.0416105 0)
(0.385835 -0.0374629 0)
(0.407041 -0.033603 0)
(0.425973 -0.0301687 0)
(0.442848 -0.0271958 0)
(0.457902 -0.0246776 0)
(0.471377 -0.0225974 0)
(0.483508 -0.0209471 0)
(0.494507 -0.0197404 0)
(0.504564 -0.0190256 0)
(0.513823 -0.0189011 0)
(0.522362 -0.0195282 0)
(0.530084 -0.0211334 0)
(0.536704 -0.0238658 0)
(0.541213 -0.0275234 0)
(0.357417 -0.0347881 0)
(0.362509 -0.0515237 0)
(0.381017 -0.0526047 0)
(0.401479 -0.049131 0)
(0.421559 -0.0447533 0)
(0.440196 -0.0404902 0)
(0.457136 -0.0366153 0)
(0.472426 -0.0332133 0)
(0.486192 -0.0302996 0)
(0.4986 -0.0278681 0)
(0.509823 -0.0259148 0)
(0.520023 -0.0244525 0)
(0.529339 -0.0235203 0)
(0.537865 -0.0231931 0)
(0.545625 -0.023579 0)
(0.552505 -0.0247967 0)
(0.55827 -0.0268425 0)
(0.562204 -0.0294065 0)
(0.416918 -0.0339966 0)
(0.417253 -0.0547458 0)
(0.428648 -0.0581923 0)
(0.443814 -0.0556038 0)
(0.459933 -0.0513449 0)
(0.475517 -0.0468922 0)
(0.490037 -0.042715 0)
(0.503361 -0.0389783 0)
(0.5155 -0.0357348 0)
(0.526536 -0.0329969 0)
(0.536575 -0.0307681 0)
(0.545728 -0.0290602 0)
(0.554082 -0.0279017 0)
(0.561692 -0.0273416 0)
(0.568548 -0.0274381 0)
(0.574538 -0.0282282 0)
(0.579503 -0.0296229 0)
(0.582933 -0.0313112 0)
(0.478503 -0.032041 0)
(0.474963 -0.0560034 0)
(0.479858 -0.0619718 0)
(0.489563 -0.0606998 0)
(0.501346 -0.0569232 0)
(0.513474 -0.0525303 0)
(0.525195 -0.0482217 0)
(0.536208 -0.0442707 0)
(0.546407 -0.0407841 0)
(0.555786 -0.0378013 0)
(0.564387 -0.0353382 0)
(0.572262 -0.0334073 0)
(0.579456 -0.0320269 0)
(0.585986 -0.0312218 0)
(0.591822 -0.0310096 0)
(0.59687 -0.031372 0)
(0.601034 -0.0321829 0)
(0.603939 -0.0331733 0)
(0.541363 -0.0292738 0)
(0.535028 -0.0553621 0)
(0.534286 -0.0637783 0)
(0.538644 -0.0641239 0)
(0.545897 -0.0611687 0)
(0.554272 -0.0571034 0)
(0.562876 -0.0528604 0)
(0.571272 -0.0488406 0)
(0.579245 -0.0452188 0)
(0.586706 -0.0420712 0)
(0.593628 -0.0394309 0)
(0.600013 -0.0373144 0)
(0.605861 -0.0357326 0)
(0.611159 -0.0346909 0)
(0.615865 -0.0341776 0)
(0.619903 -0.0341423 0)
(0.623224 -0.0344522 0)
(0.625533 -0.0348913 0)
(0.604642 -0.0260154 0)
(0.596604 -0.0530094 0)
(0.59128 -0.0635494 0)
(0.590669 -0.0656442 0)
(0.5934 -0.0637839 0)
(0.597858 -0.0603053 0)
(0.603115 -0.0563377 0)
(0.608643 -0.0524133 0)
(0.614142 -0.0487839 0)
(0.619448 -0.0455696 0)
(0.624474 -0.0428263 0)
(0.629171 -0.0405786 0)
(0.633502 -0.038834 0)
(0.637426 -0.0375851 0)
(0.640894 -0.0368028 0)
(0.643841 -0.0364224 0)
(0.646251 -0.0363214 0)
(0.647866 -0.036334 0)
(0.662233 -0.0227789 0)
(0.653509 -0.0495713 0)
(0.645055 -0.0615503 0)
(0.640447 -0.0651867 0)
(0.639231 -0.0644807 0)
(0.640092 -0.0617353 0)
(0.642164 -0.0582018 0)
(0.6449 -0.0545193 0)
(0.647951 -0.0510102 0)
(0.651101 -0.0478374 0)
(0.654217 -0.0450817 0)
(0.657208 -0.0427787 0)
(0.660008 -0.040937 0)
(0.662556 -0.0395444 0)
(0.664793 -0.0385644 0)
(0.666662 -0.0379307 0)
(0.66816 -0.0375362 0)
(0.669041 -0.0372608 0)
(0.718103 -0.0195271 0)
(0.709382 -0.045276 0)
(0.698775 -0.0581513 0)
(0.690802 -0.0631271 0)
(0.685983 -0.0635975 0)
(0.683395 -0.0616971 0)
(0.682306 -0.0587286 0)
(0.682207 -0.0554131 0)
(0.682733 -0.0521347 0)
(0.683636 -0.0490982 0)
(0.684745 -0.0464097 0)
(0.685939 -0.0441184 0)
(0.687124 -0.042238 0)
(0.688224 -0.0407559 0)
(0.68917 -0.0396353 0)
(0.689909 -0.0388145 0)
(0.690435 -0.0382036 0)
(0.690516 -0.0377221 0)
(0.779248 -0.0160031 0)
(0.771106 -0.0394904 0)
(0.759182 -0.0526205 0)
(0.748262 -0.0587122 0)
(0.739904 -0.0604182 0)
(0.7337 -0.0595512 0)
(0.729146 -0.057361 0)
(0.725839 -0.0546125 0)
(0.723446 -0.0517403 0)
(0.721711 -0.0489887 0)
(0.720442 -0.0464913 0)
(0.719495 -0.044314 0)
(0.718753 -0.04248 0)
(0.718122 -0.040982 0)
(0.717526 -0.0397889 0)
(0.716909 -0.0388496 0)
(0.716252 -0.0380959 0)
(0.71534 -0.0374742 0)
(0.843499 -0.0123797 0)
(0.836344 -0.0322792 0)
(0.824066 -0.0446665 0)
(0.810989 -0.0513105 0)
(0.799523 -0.054059 0)
(0.78985 -0.0542799 0)
(0.781764 -0.0530371 0)
(0.775045 -0.0510618 0)
(0.769458 -0.0488041 0)
(0.764779 -0.046532 0)
(0.76082 -0.0444008 0)
(0.757428 -0.0424934 0)
(0.754473 -0.0408449 0)
(0.751849 -0.0394582 0)
(0.749471 -0.038313 0)
(0.747276 -0.0373729 0)
(0.745228 -0.0365921 0)
(0.743127 -0.0359355 0)
(0.906624 -0.0087515 0)
(0.900584 -0.0238707 0)
(0.888786 -0.0342314 0)
(0.874572 -0.0404827 0)
(0.860816 -0.0437195 0)
(0.848233 -0.0448167 0)
(0.836934 -0.0445349 0)
(0.826933 -0.0434685 0)
(0.818151 -0.0420195 0)
(0.810446 -0.0404433 0)
(0.803671 -0.0388968 0)
(0.797685 -0.0374703 0)
(0.792362 -0.0362082 0)
(0.787593 -0.0351241 0)
(0.783284 -0.0342107 0)
(0.779364 -0.0334477 0)
(0.775778 -0.0328089 0)
(0.772352 -0.0322737 0)
(0.961089 -0.00509762 0)
(0.955984 -0.0144771 0)
(0.945098 -0.0214553 0)
(0.930682 -0.026094 0)
(0.915664 -0.0289038 0)
(0.901111 -0.0303162 0)
(0.887389 -0.0307416 0)
(0.874724 -0.0305465 0)
(0.863212 -0.0300054 0)
(0.852832 -0.0293044 0)
(0.843503 -0.0285651 0)
(0.835124 -0.0278616 0)
(0.827589 -0.0272348 0)
(0.820794 -0.0267014 0)
(0.814647 -0.0262631 0)
(0.809069 -0.0259119 0)
(0.80399 -0.0256363 0)
(0.799276 -0.0254264 0)
(0.994168 -0.00127215 0)
(0.989619 -0.00404702 0)
(0.979571 -0.00639427 0)
(0.965466 -0.00817711 0)
(0.950089 -0.00949842 0)
(0.934671 -0.0104392 0)
(0.919706 -0.0110851 0)
(0.905544 -0.0115329 0)
(0.892402 -0.0118639 0)
(0.880356 -0.0121361 0)
(0.869389 -0.0123886 0)
(0.85944 -0.0126456 0)
(0.85043 -0.0129201 0)
(0.842269 -0.013217 0)
(0.83487 -0.0135355 0)
(0.828152 -0.0138723 0)
(0.82204 -0.0142233 0)
(0.81645 -0.0145853 0)
(0.985587 0.00264948 0)
(0.981351 0.00738765 0)
(0.971527 0.0108899 0)
(0.957601 0.0130958 0)
(0.942407 0.014203 0)
(0.927218 0.0144466 0)
(0.912514 0.0140552 0)
(0.898616 0.0132281 0)
(0.885727 0.0121212 0)
(0.873914 0.010848 0)
(0.863156 0.00948845 0)
(0.853393 0.00809775 0)
(0.844546 0.00671316 0)
(0.83653 0.00535924 0)
(0.829259 0.00405164 0)
(0.822653 0.00279933 0)
(0.816638 0.001606 0)
(0.811185 0.00047091 0)
(0.925887 0.00712427 0)
(0.919839 0.0195778 0)
(0.90838 0.0283374 0)
(0.893951 0.033574 0)
(0.879489 0.0360871 0)
(0.865932 0.0366168 0)
(0.853452 0.035797 0)
(0.842126 0.034135 0)
(0.831952 0.0319932 0)
(0.822854 0.029613 0)
(0.814722 0.0271505 0)
(0.807445 0.0247042 0)
(0.800919 0.0223337 0)
(0.795049 0.020073 0)
(0.789753 0.0179394 0)
(0.784957 0.0159394 0)
(0.780599 0.0140718 0)
(0.776691 0.012329 0)
(0.844499 0.012154 0)
(0.837108 0.0312088 0)
(0.824921 0.0430128 0)
(0.811519 0.049085 0)
(0.799552 0.0512365 0)
(0.789349 0.0508319 0)
(0.780659 0.0488838 0)
(0.773262 0.0460961 0)
(0.766953 0.0429143 0)
(0.761535 0.0396073 0)
(0.756837 0.0363338 0)
(0.752728 0.033184 0)
(0.749099 0.0302052 0)
(0.745868 0.0274186 0)
(0.742968 0.0248294 0)
(0.740345 0.0224336 0)
(0.737954 0.0202214 0)
(0.735834 0.0181774 0)
(0.748267 0.0176542 0)
(0.739705 0.0419374 0)
(0.728492 0.0546458 0)
(0.718472 0.0597733 0)
(0.711189 0.060398 0)
(0.706109 0.0584633 0)
(0.702548 0.0552102 0)
(0.700048 0.051383 0)
(0.698284 0.0473958 0)
(0.697018 0.0434718 0)
(0.696082 0.0397274 0)
(0.695362 0.0362183 0)
(0.694783 0.0329651 0)
(0.694294 0.0299687 0)
(0.693859 0.0272188 0)
(0.693453 0.0247003 0)
(0.693061 0.0223956 0)
(0.692741 0.0202838 0)
(0.645447 0.0234813 0)
(0.636887 0.0505692 0)
(0.629271 0.0618171 0)
(0.625154 0.0646646 0)
(0.624314 0.0632563 0)
(0.625435 0.0598042 0)
(0.627576 0.0555236 0)
(0.630206 0.0510387 0)
(0.633004 0.0466512 0)
(0.635776 0.0425016 0)
(0.638413 0.0386493 0)
(0.640859 0.0351106 0)
(0.643088 0.0318794 0)
(0.645094 0.0289382 0)
(0.646883 0.0262646 0)
(0.648465 0.0238349 0)
(0.649852 0.0216263 0)
(0.651121 0.0196143 0)
(0.541938 0.0289968 0)
(0.535574 0.0556471 0)
(0.534518 0.0636084 0)
(0.538258 0.0637175 0)
(0.544725 0.0605027 0)
(0.552253 0.0560292 0)
(0.559934 0.0512587 0)
(0.56733 0.0466077 0)
(0.574236 0.0422462 0)
(0.580562 0.0382355 0)
(0.586287 0.0345859 0)
(0.591429 0.0312833 0)
(0.596022 0.0283023 0)
(0.60011 0.0256137 0)
(0.603739 0.0231879 0)
(0.606954 0.0209968 0)
(0.609793 0.0190158 0)
(0.612352 0.0172205 0)
(0.442179 0.0331278 0)
(0.440643 0.0560701 0)
(0.448678 0.0599922 0)
(0.46118 0.0577816 0)
(0.474835 0.0534868 0)
(0.488237 0.048687 0)
(0.500769 0.0439921 0)
(0.512208 0.0396176 0)
(0.522515 0.0356302 0)
(0.53173 0.0320352 0)
(0.539927 0.0288116 0)
(0.547198 0.0259271 0)
(0.553636 0.0233467 0)
(0.559332 0.0210364 0)
(0.564369 0.0189641 0)
(0.568822 0.0171011 0)
(0.572756 0.015424 0)
(0.576277 0.0139111 0)
(0.349583 0.0345472 0)
(0.354987 0.0514822 0)
(0.373659 0.0517593 0)
(0.394667 0.048218 0)
(0.414593 0.0437444 0)
(0.432857 0.0392754 0)
(0.44927 0.0351095 0)
(0.463863 0.0313339 0)
(0.476768 0.0279575 0)
(0.488146 0.0249567 0)
(0.498162 0.0222956 0)
(0.506973 0.0199355 0)
(0.514724 0.0178395 0)
(0.521546 0.015974 0)
(0.527553 0.0143088 0)
(0.532849 0.0128175 0)
(0.537515 0.0114792 0)
(0.541671 0.0102778 0)
(0.2664 0.0318457 0)
(0.279978 0.042324 0)
(0.309242 0.0403588 0)
(0.337399 0.0366236 0)
(0.362165 0.0327568 0)
(0.384033 0.029089 0)
(0.40324 0.0257406 0)
(0.420034 0.0227542 0)
(0.434694 0.020119 0)
(0.447484 0.0178022 0)
(0.458644 0.015766 0)
(0.468389 0.0139734 0)
(0.476906 0.0123912 0)
(0.484358 0.0109903 0)
(0.490886 0.00974537 0)
(0.496611 0.00863377 0)
(0.501633 0.00763756 0)
(0.506081 0.00674711 0)
(0.193285 0.0245363 0)
(0.215882 0.0301799 0)
(0.253081 0.0278974 0)
(0.28598 0.0248557 0)
(0.313824 0.0220361 0)
(0.337871 0.0193695 0)
(0.358659 0.0169343 0)
(0.376588 0.0147841 0)
(0.392048 0.0129081 0)
(0.405387 0.0112748 0)
(0.416909 0.00985153 0)
(0.426875 0.00860788 0)
(0.435506 0.00751738 0)
(0.44299 0.00655741 0)
(0.449486 0.00570865 0)
(0.455132 0.00495331 0)
(0.460036 0.00427554 0)
(0.464335 0.00367063 0)
(0.127715 0.0185956 0)
(0.160624 0.0184912 0)
(0.198658 0.0167675 0)
(0.232504 0.0146892 0)
(0.261099 0.0128934 0)
(0.285376 0.0111349 0)
(0.305993 0.00951628 0)
(0.32345 0.00811064 0)
(0.338223 0.00690801 0)
(0.350736 0.00587938 0)
(0.361345 0.00499728 0)
(0.370347 0.0042379 0)
(0.377989 0.0035812 0)
(0.384478 0.00301055 0)
(0.389984 0.00251219 0)
(0.394654 0.00207328 0)
(0.398597 0.0016788 0)
(0.401954 0.00132774 0)
(0.0432986 0.0444514 0)
(0.0990428 0.011089 0)
(0.124678 0.00784293 0)
(0.151883 0.00651833 0)
(0.175864 0.00550739 0)
(0.195567 0.00453874 0)
(0.211587 0.00366239 0)
(0.224518 0.00293006 0)
(0.234909 0.00233041 0)
(0.243237 0.00183847 0)
(0.249886 0.00143326 0)
(0.255166 0.00109804 0)
(0.259324 0.000819379 0)
(0.262562 0.000586641 0)
(0.265043 0.000391142 0)
(0.266901 0.000225919 0)
(0.268224 8.17606e-05 0)
(0.269134 -4.79586e-05 0)
(0.000486374 -0.00109238 -8.08433e-22)
(0.00212219 -0.00202897 1.01752e-21)
(0.00409644 -0.00227615 -7.81496e-22)
(0.00592074 -0.0020484 -2.62309e-22)
(0.00715986 -0.00154051 4.22477e-22)
(0.00770021 -0.000930251 -1.05262e-22)
(0.00755692 -0.000350037 -1.00364e-22)
(0.00682432 0.000133934 4.59617e-22)
(0.00560801 0.000509738 -2.68921e-22)
(0.0039949 0.000794659 9.49462e-23)
(0.00204778 0.00101068 4.16408e-23)
(-0.000198227 0.00117453 -5.58815e-22)
(-0.00273223 0.00131107 8.91344e-22)
(-0.00556292 0.00145562 9.85406e-22)
(-0.00871633 0.00163639 8.88619e-23)
(-0.0122272 0.00186876 3.82144e-22)
(-0.0161321 0.00215787 1.50003e-22)
(-0.0204636 0.00250246 2.54632e-22)
(-0.0252449 0.00289737 3.66291e-22)
(-0.0304869 0.00333565 3.77494e-23)
(-0.0361888 0.003809 -1.2002e-22)
(-0.0423364 0.00430487 9.31051e-22)
(-0.048902 0.00480556 -1.11041e-22)
(-0.0558448 0.00529208 8.4161e-22)
(-0.063113 0.00574611 -1.6327e-22)
(-0.0706451 0.00615156 5.79877e-22)
(-0.0783732 0.00649506 2.72227e-22)
(-0.0862257 0.00676676 1.64448e-22)
(-0.0941293 0.0069602 -6.05503e-22)
(-0.102012 0.00707277 -1.01255e-22)
(-0.109803 0.00710525 -6.40305e-22)
(-0.117439 0.00706122 3.68397e-22)
(-0.12486 0.00694604 2.5745e-22)
(-0.132013 0.00676642 -3.07678e-22)
(-0.138853 0.00652986 -4.48921e-22)
(-0.145339 0.00624442 -2.85522e-23)
(-0.15144 0.00591785 1.5307e-22)
(-0.157128 0.00555756 3.56194e-22)
(-0.162383 0.00517006 2.34419e-22)
(-0.167189 0.00476105 5.08181e-22)
(-0.171532 0.00433513 1.87047e-22)
(-0.175406 0.00389599 4.53876e-23)
(-0.178803 0.00344619 -5.52652e-22)
(-0.18172 0.00298731 -1.02312e-22)
(-0.184152 0.00252003 1.8579e-22)
(-0.186099 0.00204559 8.1942e-24)
(-0.187564 0.00156858 3.13723e-22)
(-0.188553 0.0011009 7.82989e-23)
(-0.189061 0.000662422 2.20442e-23)
(-0.189078 0.000272418 -9.69493e-23)
(-0.188683 -6.89297e-05 7.07627e-24)
(-0.187908 -0.000376965 -6.27445e-24)
(-0.186774 -0.000663173 -1.90481e-22)
(-0.185298 -0.00093268 -2.36612e-22)
(-0.183497 -0.0011882 -1.28255e-22)
(-0.181386 -0.0014305 -3.90398e-22)
(-0.178976 -0.00166375 -6.6171e-22)
(-0.176281 -0.00188243 8.82897e-22)
(-0.173315 -0.00208847 -4.21977e-22)
(-0.17009 -0.00228657 -5.64998e-22)
(-0.166619 -0.00247164 1.57248e-21)
(-0.162916 -0.00264671 1.18473e-21)
(-0.158994 -0.00281111 -1.05373e-21)
(-0.154865 -0.00296531 -1.42982e-21)
(-0.150543 -0.00310952 -4.51106e-22)
(-0.14604 -0.003244 1.94001e-21)
(-0.141369 -0.003369 -2.37579e-22)
(-0.136544 -0.00348463 -1.24616e-22)
(-0.131576 -0.0035908 -6.86214e-22)
(-0.126477 -0.00368751 -3.6832e-21)
(-0.121262 -0.00377543 2.00805e-22)
(-0.115943 -0.00385535 3.18113e-21)
(-0.11053 -0.0039272 -3.72858e-21)
(-0.105036 -0.00399144 -1.47447e-21)
(-0.0994723 -0.00404824 2.58308e-21)
(-0.0938496 -0.00409793 -2.31987e-21)
(-0.0881789 -0.00414076 3.85143e-22)
(-0.0824707 -0.00417707 -5.19775e-21)
(-0.0767354 -0.00420711 -2.57556e-21)
(-0.0709827 -0.00423119 4.08628e-21)
(-0.0652225 -0.00424952 1.25277e-21)
(-0.059464 -0.00426242 -2.65793e-22)
(-0.0537163 -0.00427003 -5.65745e-21)
(-0.0479881 -0.00427258 -7.5193e-21)
(-0.0422879 -0.00427014 -7.08213e-21)
(-0.036624 -0.00426289 7.6862e-21)
(-0.0310045 -0.00425084 -1.74773e-20)
(-0.0254375 -0.00423428 7.41454e-22)
(-0.0199302 -0.00421397 -1.43003e-20)
(-0.0144885 -0.00419124 2.16391e-20)
(-0.0091182 -0.00416337 1.23999e-20)
(-0.00383231 -0.00411544 -1.11418e-20)
(0.00136043 -0.00401408 -1.67598e-20)
(0.0064624 -0.00385868 2.53016e-21)
(0.0114682 -0.00368597 1.55304e-20)
(0.0163668 -0.00351403 1.53051e-20)
(0.0211525 -0.00334753 -1.56036e-20)
(0.0258235 -0.0031873 8.36574e-21)
(0.0303794 -0.00303326 1.98837e-20)
(0.0348198 -0.00288495 8.64388e-21)
(0.0391441 -0.00274196 -2.13085e-20)
(0.0433516 -0.0026038 -1.07058e-20)
(0.0474418 -0.00247025 -1.60319e-20)
(0.0514137 -0.00234096 9.83352e-21)
(0.0552665 -0.00221587 -3.14633e-21)
(0.0589996 -0.0020947 -1.09932e-21)
(0.0626122 -0.00197749 2.02978e-21)
(0.0661039 -0.00186399 4.43452e-21)
(0.0694745 -0.00175432 6.72405e-21)
(0.072724 -0.00164827 1.10595e-20)
(0.0758527 -0.00154595 1.53397e-20)
(0.0788607 -0.00144714 -8.23288e-21)
(0.0817487 -0.00135195 1.16673e-20)
(0.0845174 -0.0012602 1.1606e-20)
(0.0871674 -0.00117198 -2.0836e-20)
(0.0897 -0.00108714 1.25649e-21)
(0.0921162 -0.00100575 1.39531e-20)
(0.0944173 -0.000927635 1.49091e-20)
(0.0966047 -0.000852873 -1.41408e-20)
(0.0986801 -0.000781365 -1.08988e-21)
(0.100646 -0.000713136 -4.52197e-21)
(0.102503 -0.000648044 3.06925e-21)
(0.104255 -0.000586114 9.33128e-21)
(0.105903 -0.000527194 -8.23915e-21)
(0.107449 -0.000471356 7.62679e-21)
(0.108895 -0.000418446 -7.264e-21)
(0.110244 -0.000368498 -1.04163e-20)
(0.111499 -0.000321332 3.93623e-21)
(0.112661 -0.000276958 -1.16849e-20)
(0.113735 -0.000235213 1.10864e-20)
(0.114721 -0.000196117 -2.90535e-20)
(0.115624 -0.000159516 2.76884e-21)
(0.116445 -0.000125412 3.73075e-20)
(0.117189 -9.36305e-05 -9.94891e-21)
(0.117857 -6.41466e-05 2.73065e-21)
(0.118452 -3.67933e-05 -1.62136e-20)
(0.118978 -1.15196e-05 -2.3698e-20)
(0.119437 1.18354e-05 2.27838e-20)
(0.119831 3.33433e-05 9.62824e-21)
(0.120164 5.31776e-05 -2.17376e-21)
(0.120436 7.17023e-05 3.74962e-20)
(0.120653 8.99599e-05 3.01627e-20)
(0.120808 0.000107913 -1.45638e-20)
(0.120906 0.000123949 -1.41266e-20)
(0.120953 0.000137305 -2.28413e-20)
(0.120952 0.000148307 -3.02162e-20)
(0.120908 0.000157464 -2.07939e-20)
(0.120824 0.00016515 -3.08515e-20)
(0.120702 0.000171603 1.40339e-20)
(0.120545 0.000177038 1.20552e-20)
(0.120354 0.000181617 1.9261e-20)
(0.120132 0.000185412 1.32858e-20)
(0.119881 0.000188477 3.51296e-20)
(0.119602 0.000190881 2.21716e-21)
(0.119297 0.000192716 1.32772e-21)
(0.118968 0.000194086 -2.16553e-20)
(0.118615 0.000195067 3.21214e-20)
(0.11824 0.00019574 -1.79106e-20)
(0.117843 0.000196191 2.33924e-21)
(0.117426 0.000196488 7.95523e-21)
(0.116988 0.000196688 2.73068e-21)
(0.11653 0.000196887 6.5434e-21)
(0.116052 0.000197221 2.91526e-20)
(0.115552 0.000197855 1.35217e-20)
(0.11503 0.000198981 6.00682e-21)
(0.114482 0.000200844 8.00203e-21)
(0.113905 0.000203756 2.12481e-20)
(0.113295 0.000208116 -8.74272e-22)
(0.112643 0.000214455 2.16415e-20)
(0.111942 0.000223487 2.9341e-20)
(0.111176 0.000236214 2.68092e-20)
(0.110327 0.000254072 -9.16249e-22)
(0.109369 0.000279064 2.22578e-21)
(0.108265 0.000314743 -4.93638e-21)
(0.106964 0.000364673 -5.805e-20)
(0.105358 0.000442743 2.69464e-20)
(0.103429 0.000545626 1.86283e-20)
(0.100537 0.000769946 -3.56748e-20)
(0.0979367 0.000967801 -3.39993e-20)
(0.0886382 0.0018909 5.05613e-20)
(0.000499556 -0.00401818 2.23421e-21)
(0.0021181 -0.00658862 -1.77793e-21)
(0.00329083 -0.00614313 -6.32349e-22)
(0.0036171 -0.0042748 1.39395e-21)
(0.00306085 -0.00194723 2.76452e-22)
(0.00168449 0.000374649 1.74602e-22)
(-0.000421076 0.00246346 -1.64558e-22)
(-0.00319558 0.00423678 -8.26695e-22)
(-0.00658729 0.00571164 -5.26476e-23)
(-0.0105524 0.00695736 -8.41094e-22)
(-0.0150623 0.00805603 4.8826e-23)
(-0.0201015 0.0090785 -3.37123e-24)
(-0.0256612 0.0100787 3.06529e-22)
(-0.0317336 0.0110986 2.71034e-23)
(-0.038307 0.0121651 -1.06916e-22)
(-0.0453616 0.0132845 -8.83082e-22)
(-0.0528669 0.0144442 -1.88607e-22)
(-0.0607803 0.0156177 7.82813e-22)
(-0.0690467 0.0167695 -9.00711e-22)
(-0.0776007 0.0178582 2.43312e-22)
(-0.086365 0.0188427 2.36917e-23)
(-0.0952528 0.0196899 4.37356e-22)
(-0.104175 0.0203739 5.12969e-22)
(-0.113044 0.0208752 4.13848e-22)
(-0.121777 0.0211815 5.39042e-22)
(-0.130299 0.0212884 -3.0222e-22)
(-0.138543 0.0211983 7.06431e-23)
(-0.146449 0.02092 8.80239e-23)
(-0.153972 0.0204672 -3.29955e-22)
(-0.161071 0.0198568 -2.2599e-22)
(-0.16772 0.0191082 -3.59824e-22)
(-0.173897 0.0182418 -1.09344e-22)
(-0.179591 0.0172785 -8.0966e-22)
(-0.184794 0.0162382 3.28287e-22)
(-0.189506 0.0151395 -4.67288e-22)
(-0.19373 0.0139991 5.44327e-22)
(-0.197472 0.012832 -5.06825e-22)
(-0.200742 0.0116511 1.39504e-22)
(-0.20355 0.0104669 3.36921e-22)
(-0.205908 0.00928833 -2.45527e-22)
(-0.207828 0.00812238 2.01471e-22)
(-0.209324 0.00697455 -7.61147e-23)
(-0.21041 0.00584901 -2.85859e-22)
(-0.211101 0.00474905 -7.49879e-22)
(-0.211412 0.003677 -4.77593e-22)
(-0.211359 0.00263462 5.2735e-24)
(-0.210962 0.00162394 -4.39881e-22)
(-0.210237 0.000649925 -9.60704e-23)
(-0.209211 -0.000277097 2.68216e-22)
(-0.207917 -0.00114388 2.45562e-22)
(-0.206322 -0.00194776 3.79364e-23)
(-0.204415 -0.00269716 7.89331e-24)
(-0.202198 -0.00340003 4.56968e-23)
(-0.199679 -0.00406123 1.67759e-22)
(-0.196865 -0.00468382 1.7801e-22)
(-0.193766 -0.00526964 6.18105e-22)
(-0.190394 -0.00581996 9.21516e-22)
(-0.186759 -0.00633554 2.15641e-22)
(-0.182873 -0.00681727 -1.81933e-22)
(-0.178746 -0.00726575 1.17133e-21)
(-0.174391 -0.00768155 -1.05848e-21)
(-0.16982 -0.00806527 4.70418e-22)
(-0.165044 -0.00841751 2.26679e-21)
(-0.160075 -0.00873903 -1.64017e-22)
(-0.154925 -0.00903069 -2.00364e-21)
(-0.149606 -0.0092936 8.19615e-22)
(-0.144131 -0.00952845 -9.95451e-23)
(-0.13851 -0.00973614 2.36304e-21)
(-0.132756 -0.0099172 -8.73139e-22)
(-0.12688 -0.0100721 1.67708e-21)
(-0.120894 -0.0102013 -3.38975e-23)
(-0.114808 -0.0103065 2.29236e-21)
(-0.108634 -0.010389 -3.97206e-23)
(-0.102384 -0.0104498 1.59619e-21)
(-0.0960677 -0.0104897 -2.25745e-21)
(-0.0896957 -0.0105095 4.11882e-21)
(-0.0832784 -0.0105103 -5.69682e-22)
(-0.0768258 -0.010493 4.69879e-21)
(-0.0703477 -0.0104585 -1.73646e-22)
(-0.0638536 -0.0104078 -4.13591e-21)
(-0.0573528 -0.0103418 -8.58417e-22)
(-0.0508541 -0.0102614 2.67706e-21)
(-0.0443665 -0.0101672 4.24551e-21)
(-0.0378981 -0.0100602 -2.49044e-21)
(-0.0314573 -0.009941 -7.46235e-21)
(-0.025052 -0.00981026 2.44883e-21)
(-0.0186898 -0.00966861 1.75657e-22)
(-0.0123783 -0.00951671 2.26664e-22)
(-0.00612508 -0.00935544 -5.71248e-21)
(6.36482e-05 -0.00918545 -2.1123e-20)
(0.00618379 -0.00900728 -4.73962e-21)
(0.0122338 -0.00882132 -8.93267e-21)
(0.01821 -0.00861959 1.99538e-20)
(0.0241025 -0.008395 9.79798e-21)
(0.0299066 -0.00815488 -6.60305e-21)
(0.0356225 -0.00790909 -1.37362e-20)
(0.0412475 -0.00766318 7.78151e-21)
(0.0467781 -0.00741951 3.19975e-21)
(0.0522114 -0.00717885 5.6482e-21)
(0.0575449 -0.00694129 -8.56437e-21)
(0.0627766 -0.00670677 1.22541e-20)
(0.0679047 -0.00647516 9.45253e-21)
(0.0729275 -0.0062464 6.2968e-21)
(0.0778437 -0.00602045 -2.12573e-20)
(0.0826517 -0.00579738 2.47478e-21)
(0.0873503 -0.00557728 -1.58194e-21)
(0.0919385 -0.00536033 -8.51538e-21)
(0.0964152 -0.00514667 -1.89051e-20)
(0.10078 -0.00493646 2.63776e-21)
(0.105032 -0.00472981 7.67742e-21)
(0.109171 -0.00452691 -6.82138e-22)
(0.113197 -0.00432784 1.52377e-20)
(0.117109 -0.00413278 -1.70917e-20)
(0.120908 -0.00394182 -6.65262e-21)
(0.124594 -0.00375512 -5.31794e-21)
(0.128167 -0.00357276 -1.38941e-20)
(0.131627 -0.00339485 -1.73786e-20)
(0.134976 -0.00322144 9.35806e-21)
(0.138213 -0.00305266 -6.30907e-21)
(0.14134 -0.00288858 -9.59492e-21)
(0.144358 -0.00272932 -1.2103e-20)
(0.147269 -0.00257486 1.44431e-21)
(0.150072 -0.00242527 5.47951e-22)
(0.152769 -0.00228051 1.14438e-20)
(0.155362 -0.00214067 1.10825e-20)
(0.157852 -0.00200571 1.26744e-20)
(0.16024 -0.00187566 -1.30964e-20)
(0.162527 -0.00175047 1.96015e-21)
(0.164717 -0.00163014 9.01453e-21)
(0.166809 -0.00151459 1.90385e-21)
(0.168807 -0.00140384 1.23554e-20)
(0.170712 -0.00129777 1.68993e-20)
(0.172525 -0.00119639 8.84594e-21)
(0.17425 -0.00109956 -5.178e-21)
(0.175887 -0.00100724 -4.61611e-21)
(0.177439 -0.000919272 -5.11673e-21)
(0.178908 -0.00083557 7.09957e-21)
(0.180296 -0.000755965 -3.95799e-20)
(0.181604 -0.000680335 5.50748e-22)
(0.182836 -0.000608486 2.46206e-20)
(0.183992 -0.000540115 -1.34682e-20)
(0.185076 -0.00047441 1.6714e-20)
(0.186093 -0.000411131 6.46497e-21)
(0.187045 -0.000351503 -1.22015e-20)
(0.187932 -0.000296299 -3.73582e-21)
(0.188755 -0.000245324 -1.67279e-20)
(0.189516 -0.000198131 -9.63819e-21)
(0.190215 -0.000154329 1.89009e-20)
(0.190855 -0.000113451 2.89627e-20)
(0.191438 -7.52775e-05 -3.71791e-20)
(0.191965 -3.97904e-05 1.08587e-20)
(0.19244 -6.86589e-06 2.07765e-21)
(0.192863 2.3687e-05 -5.32842e-20)
(0.193237 5.20402e-05 1.26159e-21)
(0.193564 7.84074e-05 7.57704e-22)
(0.193844 0.000103014 -1.51554e-20)
(0.19408 0.000126055 1.8435e-20)
(0.194273 0.00014768 2.47216e-20)
(0.194424 0.000168081 2.48587e-20)
(0.194535 0.000187504 2.1332e-20)
(0.194605 0.000206223 -3.06124e-20)
(0.194635 0.000224557 3.805e-21)
(0.194626 0.000242899 -7.80775e-21)
(0.194576 0.000261726 2.07971e-20)
(0.194484 0.000281636 -6.13591e-21)
(0.194349 0.00030339 2.44083e-20)
(0.194166 0.000327974 -2.37293e-20)
(0.193931 0.000356656 -3.62335e-20)
(0.193637 0.000391125 -5.43274e-20)
(0.193274 0.000433642 -2.51995e-20)
(0.192829 0.000487376 -1.12105e-20)
(0.192284 0.00055667 5.3453e-21)
(0.191611 0.000648027 3.23366e-21)
(0.190774 0.000770739 -3.7274e-20)
(0.189722 0.000939838 -3.46247e-20)
(0.188358 0.00117936 4.759e-20)
(0.18665 0.00153047 5.80387e-20)
(0.184065 0.00207918 5.42628e-20)
(0.181669 0.00294367 2.72253e-20)
(0.174073 0.00459001 -5.78183e-20)
(0.000318916 -0.00597095 1.86422e-22)
(0.000465315 -0.00789472 2.27045e-21)
(-0.000488969 -0.00532293 1.79187e-21)
(-0.0023534 -0.00149254 -1.29447e-21)
(-0.00493633 0.00242925 3.01094e-22)
(-0.00814299 0.00609244 -1.93986e-22)
(-0.0119267 0.00938685 -9.39844e-23)
(-0.0162661 0.0122967 8.72156e-22)
(-0.0211538 0.0148618 7.50492e-22)
(-0.0265828 0.0171551 6.80841e-22)
(-0.0325408 0.0192594 3.12664e-22)
(-0.0390076 0.0212462 3.14339e-22)
(-0.0459525 0.0231634 -1.02185e-21)
(-0.0533317 0.0250322 -6.42149e-22)
(-0.0610865 0.02685 2.28512e-22)
(-0.0691453 0.0285949 -4.72448e-22)
(-0.0774258 0.0302316 4.72852e-22)
(-0.0858392 0.0317174 5.29161e-23)
(-0.0942945 0.0330085 6.80069e-22)
(-0.102702 0.0340657 5.73705e-22)
(-0.110979 0.0348568 -5.34957e-22)
(-0.119053 0.0353594 -1.40471e-21)
(-0.126862 0.0355632 -2.44327e-22)
(-0.134356 0.0354692 -1.50181e-21)
(-0.141494 0.035087 3.22444e-22)
(-0.14825 0.0344341 4.8087e-22)
(-0.154605 0.0335334 -1.8293e-22)
(-0.160548 0.0324121 6.08674e-22)
(-0.166077 0.0310996 3.07522e-22)
(-0.171194 0.0296263 6.62643e-22)
(-0.175905 0.0280222 -3.27309e-22)
(-0.180216 0.0263157 -1.95439e-22)
(-0.184137 0.0245335 8.86081e-23)
(-0.187677 0.0226993 -1.13561e-22)
(-0.190845 0.0208343 -1.77363e-22)
(-0.193649 0.0189566 -4.66154e-24)
(-0.196097 0.0170815 -6.00883e-22)
(-0.198196 0.0152217 2.14598e-22)
(-0.199953 0.0133875 -5.00827e-22)
(-0.201372 0.0115873 -1.60823e-22)
(-0.20246 0.00982736 1.33972e-22)
(-0.203223 0.00811297 -1.17363e-22)
(-0.203664 0.00644817 -2.28276e-22)
(-0.203791 0.00483638 5.27279e-22)
(-0.20361 0.00328068 5.43402e-22)
(-0.203128 0.00178408 -3.31114e-22)
(-0.20235 0.000350002 1.18574e-22)
(-0.201284 -0.0010181 -1.29354e-22)
(-0.19993 -0.00231945 -1.49018e-22)
(-0.198287 -0.00355902 -3.14524e-23)
(-0.196354 -0.00474124 -1.37442e-23)
(-0.194136 -0.00586616 3.52922e-25)
(-0.191636 -0.00693357 -9.1181e-25)
(-0.18886 -0.00794399 -1.06648e-22)
(-0.185816 -0.00889815 -2.86245e-23)
(-0.182511 -0.00979685 -6.05006e-23)
(-0.178953 -0.0106409 -1.98898e-22)
(-0.175153 -0.0114309 -3.49481e-22)
(-0.171119 -0.0121676 8.33474e-23)
(-0.166862 -0.0128519 -1.50716e-21)
(-0.162391 -0.0134844 -1.2239e-21)
(-0.157717 -0.014066 -3.66539e-22)
(-0.15285 -0.0145976 -8.94861e-22)
(-0.147801 -0.0150801 2.21837e-21)
(-0.142582 -0.0155147 -2.99923e-22)
(-0.137202 -0.0159029 -1.61635e-21)
(-0.131674 -0.0162462 2.78261e-21)
(-0.126007 -0.0165458 1.32478e-21)
(-0.120213 -0.0168029 -9.82504e-22)
(-0.114302 -0.0170187 -8.57234e-22)
(-0.108285 -0.017194 1.96027e-21)
(-0.102172 -0.0173304 -3.71294e-21)
(-0.0959744 -0.0174302 -4.29319e-22)
(-0.0897016 -0.0174949 -1.52634e-21)
(-0.083364 -0.0175259 5.30693e-21)
(-0.0769716 -0.0175247 -5.49902e-21)
(-0.070534 -0.0174929 -1.21042e-21)
(-0.0640607 -0.0174321 2.62369e-21)
(-0.057561 -0.0173436 5.14315e-21)
(-0.0510438 -0.0172291 2.72233e-21)
(-0.0445178 -0.0170899 -4.50397e-22)
(-0.0379915 -0.0169276 -1.32135e-21)
(-0.0314731 -0.0167434 6.16192e-22)
(-0.0249706 -0.0165387 5.09413e-21)
(-0.0184915 -0.0163147 1.55611e-21)
(-0.0120431 -0.0160726 1.63365e-21)
(-0.00563241 -0.0158137 -1.00397e-21)
(0.000734159 -0.0155393 3.81041e-21)
(0.00705049 -0.0152509 5.75015e-21)
(0.0133106 -0.01495 7.31275e-21)
(0.0195094 -0.0146387 -2.38273e-21)
(0.0256434 -0.0143195 9.11946e-21)
(0.0317106 -0.0139953 -9.18064e-21)
(0.0377088 -0.0136657 -8.93816e-22)
(0.0436359 -0.0133291 2.30127e-21)
(0.0494896 -0.0129871 4.47064e-21)
(0.0552657 -0.0126422 -1.59578e-21)