/*--------------------------------*- C++ -*----------------------------------*\
| =========                 |                                                 |
| \\      /  F ield         | OpenFOAM: The Open Source CFD Toolbox           |
|  \\    /   O peration     | Version:  2112                                  |
|   \\  /    A nd           | Website:  www.openfoam.com                      |
|    \\/     M anipulation  |                                                 |
\*---------------------------------------------------------------------------*/
FoamFile
{
    version     2.0;
    format      ascii;
    arch        "LSB;label=32;scalar=64";
    class       volScalarField;
    location    "100";
    object      epsilon;
}
// * * * * * * * * * * * * * * * * * * * * * * * * * * * * * * * * * * * * * //

dimensions      [0 2 -3 0 0 0 0];

internalField   nonuniform List<scalar> 
12225
(
214.003
68.5361
54.4728
48.8819
45.7412
43.606
41.9955
40.7099
39.6484
38.7574
38.0094
37.3946
36.9178
36.6004
36.5329
36.7668
37.6015
39.7027
58.3695
31.2065
23.75
20.6878
18.8793
17.6175
16.6551
15.8829
15.2431
14.7022
14.2394
13.8417
13.501
13.2118
12.9795
12.7944
12.6603
12.507
31.1052
22.3901
17.3769
14.9074
13.3678
12.2698
11.4243
10.7426
10.1762
9.69586
9.2825
8.92296
8.60759
8.32827
8.07927
7.84923
7.62003
7.37259
22.089
18.4968
14.9018
12.7818
11.3766
10.3507
9.55293
8.90695
8.36921
7.91263
7.51914
7.17589
6.87316
6.60272
6.35738
6.1279
5.90092
5.67447
18.1128
16.3046
13.6211
11.7693
10.4605
9.47755
8.70332
8.07237
7.54549
7.09742
6.71088
6.37337
6.07526
5.80856
5.5662
5.34069
5.12344
4.91362
16.1117
14.9406
12.857
11.2283
10.0018
9.05135
8.29057
7.66508
7.14017
6.69253
6.30573
5.96767
5.66891
5.40176
5.1595
4.93596
4.72537
4.52674
15.0513
14.0536
12.3667
10.9244
9.77394
8.85329
8.10253
7.47844
6.95121
6.49973
6.10865
5.76633
5.46365
5.1932
4.94871
4.72489
4.51749
4.32523
14.499
13.4555
12.0418
10.7521
9.67297
8.78221
8.04101
7.41738
6.88646
6.42952
6.03227
5.68374
5.37529
5.09984
4.85156
4.62573
4.41885
4.22932
14.2046
13.0819
11.8277
10.6571
9.64276
8.78127
8.05129
7.4292
6.8949
6.43224
6.02843
5.67327
5.35852
5.07749
4.82471
4.59586
4.38773
4.19836
14.0563
12.8547
11.6897
10.6079
9.64979
8.81853
8.10191
7.4834
6.94725
6.47989
6.07003
5.70838
5.38729
5.10048
4.84282
4.61024
4.39963
4.20872
13.9894
12.7225
11.6032
10.5844
9.67374
8.8717
8.17032
7.55789
7.02218
6.552
6.13755
5.77053
5.44392
5.1519
4.88965
4.65329
4.4397
4.24637
13.9678
12.656
11.5546
10.5742
9.69831
8.921
8.23467
7.62999
7.09708
6.6265
6.20975
5.83939
5.50903
5.21324
4.94749
4.70803
4.49175
4.296
13.9645
12.6197
11.5228
10.567
9.71827
8.96289
8.29166
7.69618
7.16799
6.699
6.28182
5.90979
5.57708
5.27869
5.01034
4.76842
4.54984
4.35187
13.9724
12.6024
11.4997
10.558
9.73022
8.99544
8.34082
7.757
7.23628
6.77154
6.35632
5.98465
5.6513
5.35167
5.08176
4.83811
4.61771
4.41783
13.9865
12.5997
11.4836
10.5444
9.72922
9.01015
8.3708
7.80019
7.28977
6.83248
6.42223
6.05372
5.72218
5.42343
5.15371
4.90975
4.68864
4.48773
14.002
12.6068
11.4737
10.5266
9.71381
9.00379
8.3762
7.81742
7.31786
6.87003
6.46758
6.10524
5.77843
5.48313
5.21584
4.97347
4.75328
4.55276
14.0151
12.6182
11.4703
10.5104
9.69186
8.98296
8.3614
7.81134
7.32129
6.88263
6.48859
6.13362
5.81306
5.52291
5.25978
5.02064
4.80286
4.60409
14.023
12.6281
11.4727
10.5038
9.67926
8.96827
8.34816
7.80209
7.31747
6.8848
6.49671
6.14724
5.83154
5.54554
5.28579
5.04935
4.83364
4.63642
14.0223
12.6293
11.4778
10.513
9.69186
8.9832
8.36441
7.81889
7.33429
6.90126
6.51251
6.16223
5.84563
5.55869
5.29801
5.06063
4.844
4.64593
14.0088
12.6164
11.4811
10.5334
9.72309
9.01782
8.3964
7.84415
7.35066
6.90804
6.50997
6.15115
5.82698
5.53348
5.2672
5.02513
4.80463
4.60345
13.9902
12.6083
11.4946
10.5584
9.74659
9.03088
8.39471
7.82712
7.31933
6.86423
6.45571
6.08836
5.7575
5.45889
5.18889
4.94424
4.72211
4.52005
13.9716
12.6182
11.5215
10.5762
9.74043
8.99769
8.33668
7.74815
7.22415
6.75739
6.34107
5.96904
5.63586
5.33677
5.06756
4.82461
4.60478
4.40541
13.9786
12.683
11.5795
10.5888
9.70247
8.91695
8.22472
7.61598
7.08053
6.60853
6.19124
5.82109
5.4916
5.19728
4.93346
4.69618
4.48209
4.28838
14.0761
12.8779
11.7094
10.621
9.6565
8.82009
8.09887
7.47623
6.93648
6.4661
6.05391
5.69078
5.36924
5.08318
4.82755
4.59818
4.39159
4.20488
14.4162
13.3357
11.9781
10.7231
9.65955
8.77075
8.02601
7.39617
6.85804
6.39387
5.99007
5.63615
5.32391
5.0468
4.79958
4.57798
4.37848
4.19815
15.3318
14.283
12.4868
10.9848
9.80395
8.86651
8.10413
7.47097
6.93617
6.47823
6.08171
5.73517
5.42992
5.15921
4.91772
4.70118
4.5061
4.32952
17.7199
15.9981
13.4151
11.5911
10.284
9.2956
8.51287
7.87221
7.33533
6.87749
6.48172
6.13586
5.83095
5.56012
5.31803
5.10047
4.90397
4.72551
24.0589
19.2725
15.2722
13.0429
11.5883
10.5308
9.70798
9.03947
8.48059
8.00377
7.59067
7.22847
6.90786
6.62183
6.36496
6.13307
5.92251
5.7303
45.5299
26.7477
20.1527
17.3239
15.6089
14.3903
13.4481
12.6822
12.039
11.4866
11.0039
10.5768
10.195
9.85082
9.53845
9.25371
8.99181
8.75128
182.196
57.8068
45.0089
39.8777
36.8506
34.7009
33.0254
31.6451
30.4651
29.4302
28.5059
27.6692
26.9042
26.1992
25.5455
24.9375
24.3643
23.8375
0.0560344
0.0407888
0.0587622
0.0776642
0.0968019
0.118264
0.147098
0.184631
0.230275
0.283554
0.344136
0.411781
0.485986
0.566081
0.651135
0.740199
0.832193
0.926195
1.02123
1.11658
1.21153
1.30571
1.39795
1.48769
1.57437
1.65775
1.73735
1.81305
1.88442
1.95143
2.01383
2.07204
2.12685
2.17778
2.22432
2.26688
2.30532
2.33981
2.3702
2.39662
2.41899
2.43744
2.45205
2.46321
2.47005
2.47245
2.47104
2.46637
2.45796
2.4459
2.43014
2.41061
2.38815
2.36264
2.33447
2.30357
2.27036
2.23481
2.19737
2.15798
2.11717
2.07488
2.03167
1.98757
1.94351
1.90095
1.8663
1.8477
1.8387
1.83192
1.8254
1.81827
1.81065
1.8023
1.79351
1.78412
1.77441
1.76424
1.75388
1.74317
1.73236
1.72132
1.71027
1.69907
1.68792
1.67672
1.66563
1.65457
1.64361
1.63275
1.62195
1.61127
1.60076
1.59044
1.58029
1.57033
1.56056
1.55096
1.54156
1.53234
1.52331
1.51446
1.5058
1.49731
1.48899
1.48091
1.47307
1.46543
1.45798
1.45069
1.44356
1.43657
1.42974
1.42304
1.41647
1.41003
1.40372
1.39752
1.39144
1.38546
1.37958
1.37379
1.36809
1.36247
1.35695
1.35151
1.34614
1.34087
1.33571
1.33065
1.32571
1.32084
1.31602
1.31124
1.30652
1.30184
1.29724
1.29269
1.2882
1.28377
1.27943
1.27505
1.27098
1.26682
1.26306
1.25913
1.25502
1.25133
1.24734
1.24376
1.23986
1.23639
1.2326
1.22921
1.22576
1.2221
1.21883
1.21545
1.21189
1.20865
1.20511
1.20188
1.1983
1.19503
1.19155
1.18774
1.18423
1.18024
1.17614
1.17147
1.16672
1.16111
1.15463
1.14684
1.13738
1.12536
1.11018
1.08531
1.06191
0.973219
0.158373
0.082085
0.0734137
0.0809765
0.095064
0.113337
0.13541
0.160879
0.189134
0.219654
0.252234
0.286132
0.320832
0.355899
0.390921
0.425555
0.45951
0.492595
0.524663
0.555655
0.585519
0.614256
0.641806
0.668193
0.693421
0.717544
0.740564
0.762533
0.783471
0.803482
0.822704
0.841464
0.860372
0.87916
0.896989
0.913751
0.929379
0.943851
0.957121
0.96917
0.979966
0.989504
0.997768
1.00475
1.01037
1.01462
1.01758
1.0191
1.01941
1.01837
1.01602
1.01235
1.00752
1.00154
0.994479
0.986375
0.977297
0.967285
0.956426
0.944768
0.932413
0.919427
0.90594
0.892079
0.878127
0.864568
0.852398
0.842582
0.83457
0.827346
0.820359
0.813327
0.806175
0.79885
0.79138
0.783759
0.776034
0.768209
0.760328
0.752392
0.744444
0.736485
0.72855
0.72064
0.712786
0.704989
0.697275
0.689647
0.682121
0.674696
0.667368
0.660149
0.653051
0.646083
0.639247
0.632546
0.625981
0.619552
0.613259
0.607102
0.601082
0.595195
0.589443
0.583844
0.578395
0.573096
0.567947
0.562939
0.558065
0.553316
0.548689
0.544177
0.539778
0.535488
0.531303
0.527221
0.523239
0.519354
0.515564
0.511865
0.50826
0.504744
0.501311
0.497959
0.494685
0.491487
0.48836
0.485306
0.482332
0.479437
0.476618
0.473908
0.471297
0.468753
0.466264
0.463827
0.461442
0.45911
0.456824
0.454586
0.452387
0.450279
0.447853
0.446203
0.443024
0.441981
0.440367
0.437278
0.436504
0.433577
0.432953
0.430098
0.429526
0.426823
0.425235
0.424594
0.422032
0.420524
0.419993
0.417471
0.417092
0.41459
0.414221
0.411766
0.410475
0.410001
0.407608
0.406332
0.405691
0.404588
0.402161
0.400779
0.400056
0.398903
0.396198
0.394961
0.394054
0.391462
0.391828
0.391104
0.264291
0.133216
0.112376
0.113346
0.122935
0.137512
0.155497
0.175818
0.197562
0.219973
0.242175
0.264296
0.286158
0.307661
0.328737
0.349353
0.369488
0.389143
0.408323
0.427049
0.445332
0.463192
0.480635
0.497677
0.514324
0.53059
0.546478
0.561999
0.577161
0.591991
0.60652
0.620804
0.634846
0.648531
0.661703
0.674279
0.686198
0.697416
0.707889
0.717584
0.726467
0.73451
0.741687
0.747975
0.753348
0.757796
0.761321
0.763918
0.765542
0.76617
0.765883
0.764692
0.762629
0.759721
0.756002
0.751501
0.746257
0.74031
0.733705
0.726492
0.718728
0.710475
0.701815
0.692846
0.683716
0.674633
0.665871
0.657646
0.649902
0.642438
0.635081
0.627723
0.620313
0.612828
0.605271
0.597647
0.589976
0.582271
0.574552
0.566832
0.559131
0.551461
0.543838
0.536271
0.528775
0.521358
0.514032
0.506804
0.499681
0.492665
0.48576
0.478967
0.472294
0.465745
0.459323
0.453028
0.446863
0.440826
0.434919
0.42914
0.42349
0.417966
0.412568
0.407299
0.402159
0.397148
0.392265
0.387508
0.382872
0.378354
0.373949
0.369656
0.365469
0.361386
0.357405
0.353524
0.349738
0.346048
0.342448
0.338939
0.335538
0.332231
0.329009
0.325869
0.322806
0.319819
0.316905
0.314064
0.311298
0.308605
0.305985
0.30344
0.300969
0.298564
0.296222
0.293936
0.29171
0.289543
0.287433
0.285377
0.283367
0.281418
0.27944
0.277647
0.275602
0.273922
0.272292
0.270378
0.268878
0.267066
0.265666
0.263939
0.262612
0.260995
0.259511
0.258293
0.256784
0.255393
0.254274
0.25282
0.251743
0.250334
0.249299
0.247956
0.246755
0.245795
0.244526
0.243398
0.242447
0.241503
0.240313
0.239279
0.238437
0.237705
0.236331
0.235865
0.235068
0.235022
0.236032
0.239828
0.381785
0.188188
0.152819
0.147324
0.151924
0.161831
0.174949
0.190073
0.206336
0.223093
0.24003
0.256805
0.273336
0.289588
0.305555
0.32125
0.336692
0.351903
0.366907
0.381726
0.396377
0.410875
0.425229
0.439447
0.453528
0.467472
0.481274
0.494925
0.508414
0.521731
0.534858
0.547778
0.560444
0.572792
0.58475
0.596255
0.607251
0.617689
0.627525
0.636716
0.645227
0.653022
0.660072
0.66635
0.671833
0.676506
0.680358
0.683381
0.685571
0.686879
0.687338
0.686987
0.685852
0.68395
0.681304
0.677944
0.673901
0.669211
0.663914
0.658053
0.651677
0.644842
0.637611
0.630059
0.622278
0.614378
0.606472
0.598646
0.590914
0.583239
0.575574
0.567884
0.560149
0.552364
0.544534
0.536669
0.528783
0.52089
0.513006
0.505146
0.497324
0.489553
0.481846
0.474214
0.466666
0.459212
0.451861
0.444619
0.437492
0.430481
0.42359
0.416822
0.410181
0.403668
0.397287
0.391037
0.38492
0.378936
0.373083
0.367362
0.361771
0.356308
0.350974
0.345768
0.340688
0.335733
0.330903
0.326195
0.321606
0.317134
0.312775
0.308526
0.304385
0.300349
0.296415
0.29258
0.288842
0.285199
0.281648
0.278187
0.274819
0.27154
0.268347
0.265236
0.262205
0.25925
0.256369
0.253562
0.250827
0.248165
0.245573
0.24305
0.240595
0.238206
0.235879
0.23361
0.231413
0.229277
0.227199
0.225174
0.223199
0.221277
0.219382
0.217566
0.215721
0.213983
0.212311
0.210599
0.209005
0.207377
0.205867
0.204322
0.202894
0.201437
0.200022
0.198705
0.197353
0.196033
0.194811
0.193534
0.192361
0.191134
0.190008
0.188838
0.187705
0.18666
0.185568
0.184516
0.183533
0.18259
0.181609
0.180681
0.179837
0.179094
0.17824
0.177665
0.177199
0.176837
0.177481
0.180274
0.62142
0.265911
0.19661
0.179043
0.176725
0.18132
0.189835
0.200709
0.213013
0.226141
0.2397
0.253373
0.267073
0.280724
0.294294
0.307779
0.321187
0.334533
0.347835
0.361108
0.374364
0.387614
0.400861
0.414107
0.427345
0.440567
0.453758
0.4669
0.479968
0.492935
0.505766
0.518424
0.530858
0.543015
0.554835
0.566258
0.57723
0.5877
0.597617
0.606938
0.615619
0.623623
0.630915
0.637468
0.643255
0.648257
0.652459
0.655852
0.65843
0.660183
0.661083
0.661196
0.66053
0.659104
0.656943
0.654072
0.650524
0.646332
0.641534
0.636173
0.630294
0.623948
0.617188
0.610077
0.602681
0.59507
0.587313
0.579464
0.571552
0.563586
0.555567
0.547493
0.539365
0.53119
0.522981
0.514749
0.506511
0.498281
0.490075
0.481908
0.473794
0.465746
0.457776
0.449894
0.44211
0.434434
0.426874
0.419434
0.412118
0.404931
0.397874
0.390951
0.384164
0.377516
0.371007
0.364638
0.358409
0.35232
0.34637
0.340557
0.334882
0.329342
0.323936
0.318662
0.313519
0.308504
0.303616
0.298852
0.294211
0.289689
0.285283
0.280991
0.27681
0.272737
0.268768
0.264903
0.261137
0.257469
0.253895
0.250414
0.247025
0.243724
0.240511
0.237381
0.234332
0.231362
0.228469
0.225649
0.222903
0.220229
0.217625
0.21509
0.212622
0.210219
0.207878
0.205598
0.20338
0.201222
0.199121
0.197075
0.195081
0.193138
0.191237
0.18939
0.187569
0.185805
0.184095
0.182405
0.180774
0.179164
0.177614
0.176092
0.174631
0.173192
0.171786
0.170434
0.169098
0.167789
0.166531
0.16528
0.164076
0.162878
0.161725
0.160579
0.15946
0.158389
0.157328
0.156294
0.155302
0.154345
0.153402
0.152496
0.151644
0.150867
0.150107
0.149484
0.149015
0.14856
0.148876
0.150543
0.897729
0.348655
0.239148
0.207111
0.19766
0.197163
0.201641
0.209106
0.218442
0.228972
0.240259
0.251997
0.263999
0.276178
0.288472
0.300853
0.313307
0.325834
0.338439
0.351128
0.363907
0.376779
0.38974
0.402787
0.415907
0.429087
0.442305
0.455535
0.468747
0.481907
0.494975
0.507898
0.520616
0.533073
0.54521
0.556968
0.568291
0.579124
0.589414
0.599114
0.608176
0.616562
0.624234
0.631159
0.637312
0.64267
0.647216
0.650941
0.653836
0.655903
0.657121
0.657522
0.657125
0.655953
0.654029
0.651378
0.648033
0.644029
0.639403
0.634197
0.628456
0.622227
0.615561
0.60851
0.601132
0.593481
0.58561
0.577566
0.569383
0.561086
0.552693
0.54422
0.535682
0.527093
0.51847
0.509831
0.501191
0.492569
0.48398
0.47544
0.466964
0.458564
0.450253
0.442041
0.433937
0.425949
0.41808
0.41034
0.402735
0.395269
0.387947
0.38077
0.37374
0.36686
0.360129
0.353548
0.347117
0.340835
0.334702
0.328714
0.322872
0.317175
0.311619
0.306203
0.300923
0.295778
0.290765
0.285882
0.281127
0.276495
0.271985
0.267594
0.263319
0.259156
0.255103
0.251156
0.247314
0.243574
0.239932
0.236387
0.232935
0.229575
0.226304
0.22312
0.220019
0.217
0.21406
0.211196
0.208408
0.205693
0.203049
0.200474
0.197968
0.195527
0.19315
0.190835
0.188581
0.186387
0.18425
0.182169
0.18014
0.178163
0.176234
0.174354
0.172514
0.170722
0.168977
0.16727
0.165607
0.163981
0.162398
0.160853
0.159353
0.157886
0.156454
0.155062
0.153699
0.152366
0.15107
0.149798
0.148559
0.147342
0.146157
0.144993
0.143857
0.14276
0.141686
0.14064
0.139626
0.138645
0.137689
0.136768
0.135892
0.135075
0.134305
0.133631
0.133091
0.132599
0.132676
0.133549
1.18151
0.429328
0.27836
0.231807
0.215055
0.210263
0.211356
0.216118
0.223207
0.231847
0.24155
0.252004
0.26292
0.274203
0.285785
0.297608
0.30964
0.321863
0.33427
0.346857
0.359622
0.372562
0.385663
0.398914
0.412302
0.425804
0.439395
0.453042
0.466708
0.480353
0.493926
0.507367
0.520617
0.533618
0.546308
0.558624
0.570504
0.581892
0.592728
0.602962
0.612544
0.62143
0.629579
0.636958
0.643537
0.649292
0.654205
0.658265
0.661464
0.663801
0.665273
0.665892
0.665681
0.664659
0.662851
0.660286
0.656998
0.653022
0.648399
0.643169
0.637377
0.631069
0.624295
0.617104
0.609548
0.601675
0.593534
0.58517
0.57662
0.567916
0.559088
0.55016
0.541155
0.532094
0.522999
0.513889
0.504786
0.495706
0.486669
0.47769
0.468785
0.459967
0.451248
0.44264
0.434154
0.425798
0.417577
0.409497
0.401564
0.393782
0.386153
0.378681
0.371367
0.364212
0.357217
0.350382
0.343707
0.33719
0.33083
0.324626
0.318576
0.312678
0.306926
0.301321
0.29586
0.290541
0.285362
0.280319
0.275411
0.270632
0.265982
0.261456
0.257052
0.252766
0.248595
0.244537
0.240588
0.236745
0.233006
0.229366
0.225825
0.222378
0.219025
0.215761
0.212584
0.209492
0.206482
0.203552
0.200699
0.197922
0.195218
0.192586
0.190024
0.187529
0.185099
0.182733
0.180429
0.178185
0.175999
0.17387
0.171795
0.169773
0.167801
0.165879
0.164001
0.16217
0.160385
0.158642
0.156942
0.155282
0.153663
0.152083
0.150543
0.14904
0.147573
0.146142
0.144745
0.143378
0.142045
0.140741
0.139467
0.13822
0.137001
0.135809
0.134643
0.133509
0.132402
0.131322
0.130273
0.129254
0.128264
0.127308
0.126392
0.125527
0.124714
0.123978
0.123356
0.122826
0.122672
0.12305
1.45249
0.504114
0.313464
0.253327
0.22993
0.221213
0.219617
0.222224
0.227591
0.234827
0.243384
0.252906
0.263163
0.273954
0.285174
0.296764
0.308681
0.320898
0.333397
0.346164
0.359187
0.372454
0.38594
0.399639
0.413533
0.427596
0.441795
0.456091
0.470438
0.484781
0.499064
0.513225
0.527202
0.540927
0.554336
0.56736
0.579933
0.591994
0.60348
0.614335
0.624507
0.633947
0.642614
0.650471
0.657486
0.663636
0.668901
0.673269
0.676733
0.679292
0.68095
0.681718
0.681612
0.680651
0.67886
0.676277
0.672937
0.668877
0.664138
0.658762
0.652795
0.646283
0.639275
0.631819
0.623967
0.615765
0.607261
0.598499
0.589521
0.580363
0.571059
0.561641
0.552135
0.54257
0.532969
0.523355
0.513752
0.50418
0.494657
0.485201
0.475828
0.466553
0.457388
0.448345
0.439435
0.430666
0.422045
0.413578
0.40527
0.397125
0.389146
0.381335
0.373695
0.366225
0.358927
0.3518
0.344844
0.338056
0.331437
0.324983
0.318693
0.312565
0.306596
0.300782
0.29512
0.289608
0.284243
0.279022
0.273941
0.268998
0.264189
0.25951
0.254959
0.250532
0.246226
0.242038
0.237964
0.234
0.230144
0.226392
0.222743
0.219192
0.215739
0.212379
0.20911
0.205929
0.202834
0.199822
0.19689
0.194037
0.191259
0.188556
0.185924
0.183362
0.180868
0.178439
0.176073
0.173769
0.171525
0.169338
0.167208
0.165131
0.163107
0.161133
0.159207
0.157329
0.155496
0.153708
0.151963
0.15026
0.148597
0.146975
0.145391
0.143846
0.142337
0.140864
0.139425
0.138019
0.136646
0.135303
0.13399
0.132706
0.131451
0.130223
0.129022
0.12785
0.126706
0.12559
0.124503
0.123446
0.122418
0.121423
0.120466
0.119553
0.118691
0.117896
0.117192
0.116585
0.116236
0.11628
1.6949
0.570437
0.34413
0.271928
0.242729
0.230567
0.226782
0.227697
0.231748
0.237944
0.245682
0.254573
0.264353
0.274849
0.285934
0.297514
0.30953
0.321944
0.334732
0.347873
0.361353
0.375156
0.389259
0.403638
0.418261
0.433094
0.448095
0.463218
0.478408
0.493606
0.508751
0.523775
0.538607
0.553176
0.567409
0.581233
0.594577
0.607374
0.619558
0.63107
0.641852
0.651856
0.661037
0.669357
0.676784
0.683295
0.688869
0.693496
0.69717
0.69989
0.701665
0.702506
0.702424
0.701441
0.69958
0.696892
0.693412
0.689178
0.684232
0.678619
0.672385
0.665578
0.658248
0.650443
0.642214
0.633609
0.624677
0.615463
0.60601
0.596359
0.586547
0.57661
0.566578
0.556483
0.546352
0.536211
0.526084
0.515994
0.505961
0.496004
0.486139
0.476382
0.466746
0.457244
0.447886
0.43868
0.429636
0.420757
0.412051
0.403519
0.395167
0.386995
0.379005
0.371199
0.363576
0.356135
0.348876
0.341798
0.334898
0.328174
0.321625
0.315247
0.309037
0.302992
0.297109
0.291384
0.285815
0.280397
0.275127
0.270002
0.265018
0.260172
0.255459
0.250877
0.246422
0.24209
0.23788
0.233785
0.229802
0.225929
0.222163
0.2185
0.214938
0.211473
0.208103
0.204825
0.201636
0.198533
0.195513
0.192575
0.189715
0.186932
0.184223
0.181585
0.179017
0.176517
0.174081
0.17171
0.169399
0.167148
0.164955
0.162818
0.160734
0.158702
0.15672
0.154787
0.152901
0.15106
0.149264
0.147511
0.145799
0.144128
0.142497
0.140904
0.139348
0.137829
0.136345
0.134894
0.133476
0.132091
0.130735
0.12941
0.128114
0.126846
0.125606
0.124394
0.12321
0.122054
0.120927
0.119829
0.11876
0.117724
0.116723
0.115763
0.11485
0.113997
0.11322
0.112533
0.112021
0.111804
1.89703
0.626565
0.370209
0.287819
0.253754
0.238738
0.233129
0.232741
0.235792
0.241234
0.248415
0.256916
0.266461
0.276857
0.28797
0.299706
0.312001
0.324804
0.33808
0.351799
0.365933
0.380457
0.395341
0.410553
0.426056
0.441806
0.457755
0.473845
0.490015
0.506199
0.522324
0.538316
0.554096
0.569585
0.584704
0.599375
0.613521
0.62707
0.639954
0.652109
0.663478
0.674009
0.683658
0.692388
0.700166
0.70697
0.712781
0.717591
0.721394
0.724195
0.726002
0.72683
0.726688
0.725594
0.723579
0.720701
0.716997
0.712508
0.707276
0.701348
0.694772
0.687597
0.679874
0.671654
0.662987
0.653924
0.644514
0.634804
0.62484
0.614664
0.604317
0.593837
0.583259
0.572615
0.561936
0.55125
0.540583
0.52996
0.5194
0.508926
0.498554
0.4883
0.478178
0.468202
0.458381
0.448726
0.439243
0.429939
0.42082
0.411889
0.40315
0.394603
0.386252
0.378096
0.370135
0.362369
0.354796
0.347414
0.340222
0.333218
0.326397
0.319759
0.313298
0.307012
0.300897
0.294949
0.289165
0.283541
0.278073
0.272757
0.26759
0.262567
0.257685
0.252939
0.248327
0.243844
0.239486
0.235251
0.231134
0.227131
0.22324
0.219456
0.215778
0.212201
0.208723
0.20534
0.20205
0.198849
0.195735
0.192705
0.189757
0.186888
0.184096
0.181378
0.178732
0.176155
0.173645
0.171201
0.16882
0.1665
0.164239
0.162035
0.159887
0.157793
0.155749
0.153756
0.151812
0.149914
0.148062
0.146254
0.144489
0.142765
0.141082
0.139438
0.137831
0.136262
0.134729
0.13323
0.131765
0.130333
0.128932
0.127561
0.126221
0.124909
0.123626
0.122372
0.121145
0.119947
0.118777
0.117636
0.116525
0.115445
0.114399
0.113391
0.112428
0.111517
0.110672
0.109908
0.109273
0.108856
2.04973
0.671117
0.391541
0.301107
0.26318
0.245902
0.238815
0.237461
0.239805
0.24475
0.251605
0.259935
0.269449
0.279948
0.291292
0.303379
0.316135
0.329505
0.343444
0.357913
0.372877
0.388301
0.404145
0.420368
0.436922
0.453753
0.4708
0.487999
0.505276
0.522554
0.539752
0.556785
0.573567
0.590012
0.606034
0.621549
0.636476
0.650741
0.664273
0.677008
0.688887
0.699861
0.709885
0.718924
0.72695
0.73394
0.739882
0.744767
0.748594
0.751371
0.753106
0.753819
0.753518
0.752212
0.749952
0.746797
0.742786
0.737961
0.732367
0.726052
0.719066
0.711458
0.703283
0.694591
0.685436
0.675868
0.665939
0.655697
0.645191
0.634464
0.623559
0.612517
0.601375
0.590168
0.578929
0.567686
0.556469
0.545301
0.534207
0.523206
0.512318
0.501559
0.490944
0.480486
0.470195
0.460082
0.450155
0.44042
0.430882
0.421545
0.412412
0.403485
0.394766
0.386254
0.37795
0.369853
0.36196
0.354271
0.346782
0.339491
0.332395
0.32549
0.318774
0.312242
0.30589
0.299714
0.293711
0.287876
0.282205
0.276694
0.271339
0.266135
0.261078
0.256165
0.251391
0.246752
0.242245
0.237865
0.233608
0.229471
0.225451
0.221543
0.217744
0.21405
0.21046
0.206968
0.203572
0.20027
0.197058
0.193932
0.190892
0.187933
0.185053
0.18225
0.179521
0.176864
0.174276
0.171755
0.169299
0.166906
0.164574
0.162301
0.160085
0.157924
0.155817
0.15376
0.151754
0.149795
0.147884
0.146018
0.144195
0.142415
0.140677
0.138978
0.137319
0.135697
0.134112
0.132562
0.131047
0.129565
0.128115
0.126697
0.125309
0.123951
0.122623
0.121323
0.120052
0.118809
0.117595
0.116409
0.115253
0.114128
0.113036
0.11198
0.110965
0.109999
0.10909
0.108253
0.107517
0.106945
2.14273
0.701468
0.407387
0.31162
0.271022
0.252145
0.24401
0.241996
0.243915
0.248613
0.255379
0.263763
0.273468
0.28429
0.296083
0.30874
0.322181
0.336342
0.351169
0.366614
0.382632
0.399174
0.416191
0.433626
0.451419
0.469503
0.487803
0.506242
0.524734
0.54319
0.561518
0.579624
0.597414
0.614794
0.631674
0.647967
0.66359
0.678467
0.692528
0.705711
0.71796
0.729229
0.739477
0.748673
0.756793
0.763819
0.769742
0.774558
0.778272
0.780892
0.782431
0.782903
0.782326
0.780691
0.778086
0.774561
0.770155
0.764913
0.758881
0.752108
0.744645
0.736546
0.727862
0.718649
0.708959
0.698847
0.688363
0.677559
0.666484
0.655183
0.643703
0.632083
0.620365
0.608584
0.596775
0.584968
0.573194
0.561477
0.549843
0.538313
0.526906
0.515639
0.504528
0.493587
0.482825
0.472254
0.461881
0.451714
0.441756
0.432013
0.422486
0.413179
0.404091
0.395224
0.386576
0.378146
0.369934
0.361936
0.354149
0.346571
0.339199
0.332029
0.325056
0.318277
0.311688
0.305284
0.299061
0.293014
0.287139
0.281431
0.275887
0.270501
0.265269
0.260187
0.25525
0.250454
0.245795
0.241269
0.236872
0.232599
0.228447
0.224412
0.220491
0.216679
0.212974
0.209371
0.205868
0.202462
0.199148
0.195925
0.192789
0.189738
0.186768
0.183878
0.181064
0.178323
0.175655
0.173055
0.170522
0.168054
0.165648
0.163303
0.161017
0.158787
0.156612
0.154489
0.152418
0.150397
0.148423
0.146496
0.144614
0.142775
0.140979
0.139224
0.137508
0.135832
0.134192
0.132589
0.131022
0.129488
0.127987
0.126519
0.125082
0.123676
0.1223
0.120953
0.119635
0.118346
0.117086
0.115854
0.114652
0.11348
0.11234
0.111236
0.11017
0.109149
0.10818
0.107275
0.106452
0.105755
2.17482
0.717822
0.417906
0.319456
0.277384
0.257596
0.248875
0.246541
0.248341
0.253079
0.260033
0.268749
0.278926
0.290357
0.302891
0.316417
0.330844
0.3461
0.362119
0.37884
0.396201
0.414139
0.432586
0.45147
0.470713
0.49023
0.50993
0.52972
0.5495
0.569169
0.588624
0.607764
0.626487
0.644697
0.6623
0.679211
0.695348
0.710639
0.72502
0.738432
0.750828
0.762167
0.772416
0.781549
0.78955
0.796407
0.802117
0.80668
0.810104
0.812405
0.813604
0.813687
0.812681
0.810595
0.807535
0.803538
0.798645
0.7929
0.786352
0.77905
0.771047
0.762397
0.753153
0.743372
0.733107
0.722413
0.711344
0.69995
0.688283
0.676391
0.664319
0.652111
0.639806
0.627445
0.61506
0.602686
0.590353
0.578086
0.565913
0.553854
0.541929
0.530157
0.518554
0.507131
0.495902
0.484877
0.474062
0.463466
0.453093
0.442947
0.433031
0.423347
0.413895
0.404676
0.395689
0.386931
0.378402
0.370099
0.362019
0.354158
0.346513
0.339079
0.331854
0.324831
0.318007
0.311377
0.304936
0.298679
0.292603
0.286701
0.280969
0.275402
0.269996
0.264746
0.259648
0.254696
0.249886
0.245215
0.240677
0.236268
0.231985
0.227824
0.22378
0.219849
0.216029
0.212315
0.208704
0.205193
0.201778
0.198456
0.195224
0.192079
0.189018
0.186039
0.183138
0.180314
0.177562
0.174882
0.172271
0.169726
0.167245
0.164826
0.162468
0.160167
0.157923
0.155733
0.153595
0.151509
0.149471
0.147481
0.145537
0.143638
0.141782
0.139968
0.138195
0.136461
0.134766
0.133108
0.131486
0.129899
0.128346
0.126826
0.125338
0.123882
0.122457
0.121061
0.119695
0.118359
0.117051
0.115772
0.114522
0.113303
0.112116
0.110962
0.109846
0.108771
0.107744
0.106774
0.105875
0.105076
2.1501
0.724651
0.424515
0.325238
0.282625
0.262529
0.253691
0.251436
0.25349
0.258637
0.266156
0.275593
0.286646
0.299102
0.312806
0.327634
0.343486
0.360271
0.377906
0.396309
0.415397
0.435082
0.455274
0.475876
0.496787
0.517902
0.53911
0.560301
0.581362
0.602181
0.622648
0.642657
0.662106
0.680901
0.698954
0.716183
0.732518
0.747896
0.762262
0.77557
0.787783
0.798871
0.80881
0.817585
0.825187
0.831611
0.836859
0.840939
0.843862
0.845644
0.8463
0.845834
0.844233
0.84158
0.837946
0.833369
0.82789
0.821555
0.814411
0.806509
0.797902
0.788644
0.778791
0.768397
0.757519
0.746211
0.734528
0.722522
0.710245
0.697745
0.68507
0.672263
0.659367
0.646421
0.63346
0.620519
0.607628
0.594815
0.582106
0.569523
0.557087
0.544816
0.532726
0.520831
0.509142
0.497669
0.486422
0.475405
0.464625
0.454085
0.443788
0.433735
0.423927
0.414364
0.405044
0.395967
0.387129
0.378528
0.370161
0.362024
0.354112
0.346422
0.338949
0.331688
0.324635
0.317784
0.31113
0.304669
0.298395
0.292303
0.286388
0.280644
0.275068
0.269653
0.264396
0.259291
0.254333
0.249519
0.244843
0.240301
0.235888
0.231601
0.227436
0.223388
0.219454
0.215629
0.211911
0.208295
0.204779
0.201358
0.19803
0.194792
0.19164
0.188572
0.185584
0.182675
0.179841
0.177079
0.174389
0.171766
0.169209
0.166716
0.164284
0.161912
0.159598
0.157339
0.155134
0.15298
0.150878
0.148824
0.146817
0.144856
0.142939
0.141065
0.139233
0.137441
0.135689
0.133974
0.132297
0.130655
0.129049
0.127476
0.125936
0.124428
0.122951
0.121506
0.12009
0.118705
0.117348
0.116021
0.114724
0.113457
0.112221
0.111019
0.109852
0.108724
0.107642
0.106611
0.105643
0.104758
2.06674
0.717145
0.425172
0.328271
0.286587
0.267094
0.258838
0.257258
0.260095
0.266212
0.27488
0.285646
0.298204
0.312334
0.327866
0.344658
0.362586
0.381531
0.40138
0.422016
0.443323
0.46518
0.487463
0.510044
0.532795
0.555587
0.578292
0.600785
0.622945
0.644657
0.665813
0.686311
0.706061
0.72498
0.742996
0.760044
0.776072
0.791033
0.804891
0.817617
0.829189
0.839591
0.848812
0.856848
0.863696
0.869361
0.873852
0.877179
0.879358
0.880407
0.880307
0.879067
0.876713
0.873352
0.869017
0.863747
0.857582
0.850566
0.842746
0.834174
0.824901
0.814981
0.80447
0.793423
0.781896
0.769945
0.757623
0.744985
0.732081
0.718962
0.705675
0.692265
0.678775
0.665244
0.651709
0.638204
0.624761
0.611408
0.598171
0.585073
0.572135
0.559375
0.54681
0.534453
0.522315
0.510408
0.498738
0.487314
0.476138
0.465216
0.454549
0.444139
0.433987
0.424091
0.414451
0.405064
0.395928
0.387039
0.378395
0.369991
0.361822
0.353885
0.346173
0.338683
0.331408
0.324344
0.317485
0.310826
0.304361
0.298085
0.291992
0.286078
0.280336
0.274763
0.269351
0.264097
0.258996
0.254042
0.249232
0.244559
0.240021
0.235612
0.231328
0.227165
0.223118
0.219185
0.215361
0.211643
0.208026
0.204508
0.201085
0.197754
0.194512
0.191355
0.188281
0.185287
0.18237
0.179528
0.176758
0.174058
0.171425
0.168857
0.166352
0.163908
0.161523
0.159194
0.156921
0.154701
0.152532
0.150413
0.148343
0.146319
0.14434
0.142406
0.140514
0.138663
0.136853
0.135081
0.133347
0.13165
0.129989
0.128362
0.126769
0.125209
0.123681
0.122184
0.120718
0.119282
0.117877
0.116501
0.115154
0.113838
0.112554
0.111302
0.110085
0.108906
0.107769
0.106681
0.105651
0.104691
1.91497
0.691591
0.420138
0.328475
0.289495
0.271858
0.265245
0.265329
0.2699
0.278006
0.288875
0.302059
0.317243
0.334186
0.352683
0.372553
0.393621
0.415719
0.438678
0.462329
0.486502
0.511029
0.535744
0.560486
0.585099
0.609436
0.633362
0.656752
0.679493
0.701484
0.722638
0.74288
0.762145
0.780382
0.797548
0.81361
0.828543
0.842329
0.854957
0.866418
0.87671
0.885832
0.893788
0.900581
0.906219
0.910709
0.914064
0.9163
0.917438
0.917434
0.916307
0.914049
0.910786
0.906542
0.90135
0.895245
0.888266
0.880454
0.871856
0.862521
0.852498
0.841842
0.830606
0.818847
0.806618
0.793975
0.780974
0.767666
0.754104
0.740338
0.726416
0.712382
0.69828
0.68415
0.67003
0.655952
0.64195
0.628052
0.614283
0.600669
0.587228
0.57398
0.560941
0.548124
0.535541
0.523202
0.511115
0.499286
0.487721
0.476421
0.46539
0.454629
0.444138
0.433915
0.42396
0.414269
0.404841
0.395671
0.386755
0.378089
0.369669
0.361489
0.353544
0.345829
0.338338
0.331065
0.324005
0.317152
0.3105
0.304043