/*--------------------------------*- C++ -*----------------------------------*\
| =========                 |                                                 |
| \\      /  F ield         | OpenFOAM: The Open Source CFD Toolbox           |
|  \\    /   O peration     | Version:  2112                                  |
|   \\  /    A nd           | Website:  www.openfoam.com                      |
|    \\/     M anipulation  |                                                 |
\*---------------------------------------------------------------------------*/
FoamFile
{
    version     2.0;
    format      ascii;
    arch        "LSB;label=32;scalar=64";
    class       volScalarField;
    location    "100";
    object      k;
}
// * * * * * * * * * * * * * * * * * * * * * * * * * * * * * * * * * * * * * //

dimensions      [0 2 -2 0 0 0 0];

internalField   nonuniform List<scalar> 
12225
(
0.193513
0.0905823
0.0777228
0.0723088
0.0691768
0.0670062
0.0653452
0.0640036
0.0628849
0.0619377
0.0611365
0.0604734
0.0599557
0.0596083
0.0595301
0.0597793
0.0606722
0.0628943
0.287999
0.179223
0.148165
0.131884
0.120866
0.112486
0.105725
0.100082
0.0952693
0.0911048
0.0874666
0.0842696
0.0814531
0.0789775
0.0768154
0.0749639
0.0733708
0.0721676
0.319771
0.228294
0.190888
0.169921
0.155515
0.144503
0.135589
0.128127
0.121744
0.116203
0.111346
0.107056
0.10325
0.0998662
0.0968526
0.094175
0.0917768
0.0896405
0.334921
0.260044
0.221078
0.197532
0.180988
0.168243
0.157888
0.149197
0.141747
0.135268
0.129575
0.124533
0.120044
0.116029
0.112424
0.10918
0.106244
0.10359
0.343895
0.282689
0.2447
0.219887
0.201913
0.187885
0.176413
0.166746
0.158436
0.151192
0.144812
0.139148
0.13409
0.129548
0.12545
0.121737
0.118363
0.115311
0.349905
0.299572
0.263917
0.238824
0.219982
0.205019
0.192666
0.182196
0.17316
0.165258
0.158281
0.152072
0.14651
0.141502
0.136967
0.132845
0.129093
0.125698
0.354188
0.312414
0.279733
0.255102
0.235888
0.220306
0.207286
0.196167
0.186519
0.178049
0.170546
0.16385
0.157837
0.152407
0.147481
0.142996
0.13891
0.135209
0.357311
0.322217
0.292704
0.26907
0.249913
0.234016
0.22054
0.208922
0.198776
0.189826
0.181867
0.174742
0.168326
0.16252
0.157243
0.152434
0.148051
0.144074
0.35958
0.329632
0.303187
0.280895
0.262155
0.246224
0.232503
0.220546
0.210022
0.200685
0.192345
0.184853
0.178087
0.171951
0.166366
0.161273
0.156627
0.152401
0.361189
0.335119
0.311453
0.290676
0.272625
0.256913
0.243153
0.231018
0.220245
0.210624
0.201988
0.194198
0.187142
0.180728
0.174882
0.169544
0.16467
0.160224
0.362287
0.339033
0.317734
0.298494
0.281314
0.266029
0.252419
0.240267
0.229378
0.219584
0.210743
0.202734
0.195455
0.188823
0.182765
0.177227
0.172162
0.167528
0.36294
0.341453
0.321887
0.303958
0.287651
0.272895
0.259572
0.247542
0.236669
0.226821
0.217883
0.209751
0.202337
0.195563
0.189363
0.183685
0.178482
0.173709
0.363366
0.343065
0.32483
0.308048
0.2926
0.278437
0.265492
0.253685
0.242922
0.233109
0.224152
0.215968
0.208479
0.201617
0.195323
0.189546
0.184239
0.179359
0.363653
0.344117
0.326902
0.311161
0.296604
0.283135
0.270698
0.259245
0.248716
0.239045
0.230164
0.222008
0.214513
0.207622
0.201281
0.195445
0.190068
0.185108
0.363821
0.344631
0.328003
0.31303
0.299264
0.286512
0.274678
0.263699
0.253531
0.244126
0.235436
0.227413
0.220006
0.213166
0.206849
0.201013
0.195617
0.190623
0.363906
0.344744
0.328279
0.313695
0.300463
0.288302
0.277045
0.26659
0.256874
0.247847
0.239464
0.231683
0.224463
0.217766
0.211554
0.205789
0.200439
0.195468
0.363943
0.344661
0.328078
0.313547
0.300551
0.288747
0.277913
0.267901
0.258611
0.249975
0.241937
0.234452
0.227482
0.22099
0.214943
0.209308
0.204055
0.199156
0.363966
0.344593
0.327862
0.313247
0.30028
0.288613
0.277992
0.268236
0.259216
0.250842
0.243047
0.23578
0.228998
0.222664
0.216747
0.211217
0.206045
0.201205
0.363982
0.344669
0.328005
0.313444
0.300508
0.288849
0.278217
0.268437
0.259388
0.250981
0.243152
0.23585
0.229033
0.222665
0.216713
0.211148
0.205941
0.201068
0.363955
0.344809
0.328359
0.313871
0.300807
0.288852
0.277823
0.267596
0.258089
0.249243
0.241009
0.233342
0.226203
0.219554
0.213359
0.207586
0.202202
0.197181
0.363863
0.344702
0.32809
0.313165
0.299468
0.286798
0.275042
0.264133
0.254018
0.244649
0.235975
0.227946
0.220513
0.21363
0.207252
0.201338
0.195849
0.190751
0.363541
0.343655
0.325988
0.309795
0.294847
0.281068
0.268389
0.256746
0.246068
0.236281
0.227308
0.219077
0.211515
0.204559
0.198151
0.192238
0.186776
0.181723
0.362732
0.340705
0.320684
0.302386
0.285799
0.270842
0.257376
0.245242
0.234284
0.224366
0.215364
0.207174
0.199704
0.192872
0.186609
0.180856
0.175559
0.170677
0.361065
0.334781
0.311057
0.2902
0.272078
0.256291
0.242446
0.230216
0.219338
0.209605
0.200851
0.192944
0.185771
0.179242
0.173281
0.167821
0.162809
0.158199
0.358089
0.3248
0.296402
0.273149
0.254023
0.237988
0.224286
0.212396
0.201956
0.192701
0.184436
0.177009
0.170301
0.164215
0.158672
0.153608
0.148967
0.144706
0.353258
0.309497
0.276146
0.251306
0.232052
0.216473
0.203447
0.192302
0.182607
0.17407
0.166483
0.15969
0.153572
0.148033
0.142997
0.138402
0.134195
0.130339
0.345563
0.286887
0.249476
0.224516
0.20621
0.191811
0.179958
0.169909
0.161221
0.153602
0.146851
0.14082
0.135397
0.130493
0.126038
0.121976
0.118259
0.114859
0.332244
0.253167
0.214521
0.191525
0.175369
0.16289
0.152703
0.144109
0.136702
0.130221
0.124488
0.119371
0.114773
0.110619
0.106847
0.103409
0.100262
0.0973934
0.30331
0.19907
0.165311
0.147188
0.134796
0.125302
0.11758
0.111079
0.105487
0.1006
0.0962804
0.0924277
0.0889672
0.0858407
0.0830019
0.0804145
0.0780408
0.0758922
0.208973
0.0972115
0.0822746
0.0758966
0.0720058
0.0691781
0.0669336
0.065056
0.0634291
0.0619852
0.0606813
0.0594888
0.058388
0.0573644
0.056407
0.0555093
0.0546563
0.0538665
0.00109736
0.00147065
0.00187458
0.00225567
0.00260972
0.00297722
0.00343772
0.003997
0.00462993
0.00531882
0.00605217
0.00682238
0.00762078
0.00843873
0.00926654
0.010096
0.0109186
0.0117287
0.01252
0.0132898
0.0140344
0.0147538
0.0154418
0.0160966
0.0167161
0.0173013
0.0178502
0.0183645
0.0188422
0.0192851
0.0196923
0.0200677
0.0204158
0.0207383
0.0210294
0.0212936
0.02153
0.0217406
0.0219247
0.0220837
0.022217
0.0223262
0.0224117
0.0224764
0.0225109
0.0225205
0.0225086
0.0224758
0.0224201
0.0223424
0.0222427
0.0221191
0.0219762
0.0218143
0.0216355
0.021439
0.0212272
0.0209996
0.0207588
0.0205042
0.020239
0.0199624
0.0196778
0.019385
0.0190891
0.0187963
0.018538
0.0183763
0.0182974
0.0182417
0.01819
0.0181347
0.0180762
0.0180126
0.0179459
0.0178748
0.0178013
0.0177246
0.0176462
0.0175652
0.0174832
0.0173995
0.0173153
0.01723
0.0171447
0.0170589
0.0169735
0.0168881
0.0168033
0.0167188
0.0166347
0.0165512
0.0164686
0.0163871
0.0163067
0.0162274
0.0161492
0.0160721
0.0159962
0.0159214
0.0158478
0.0157754
0.0157041
0.0156339
0.0155648
0.0154971
0.015431
0.0153663
0.0153028
0.0152404
0.0151791
0.0151186
0.0150592
0.0150006
0.0149429
0.014886
0.0148299
0.0147745
0.0147199
0.0146659
0.0146126
0.0145598
0.0145076
0.0144558
0.0144047
0.014354
0.0143039
0.0142543
0.0142054
0.0141572
0.0141097
0.0140627
0.0140159
0.0139694
0.0139231
0.0138771
0.0138315
0.0137863
0.0137414
0.0136968
0.0136526
0.0136088
0.0135645
0.013524
0.0134816
0.0134414
0.0133998
0.0133572
0.0133176
0.0132756
0.0132365
0.0131952
0.0131563
0.0131167
0.0130764
0.0130381
0.0129992
0.0129594
0.0129217
0.0128819
0.012844
0.0128041
0.0127654
0.0127258
0.0126847
0.0126442
0.0126027
0.012558
0.0125144
0.0124665
0.0124158
0.0123591
0.012298
0.0122273
0.0121425
0.0120392
0.0119154
0.0117242
0.0115135
0.0108797
0.00219173
0.0031201
0.00426037
0.00522459
0.00607887
0.00689707
0.00772372
0.00857833
0.00946487
0.0103827
0.0113313
0.012311
0.0133208
0.0143586
0.0154206
0.0165026
0.0175997
0.0187072
0.0198204
0.0209352
0.0220473
0.0231532
0.0242486
0.0253303
0.0263947
0.0274394
0.0284608
0.0294566
0.0304234
0.0313586
0.0322585
0.03312
0.0339388
0.0347176
0.0354613
0.0361707
0.0368451
0.0374837
0.0380852
0.0386489
0.0391735
0.0396583
0.0401024
0.0405052
0.0408656
0.0411838
0.0414602
0.0416945
0.0418872
0.0420388
0.0421494
0.0422124
0.0422345
0.0422187
0.0421665
0.042078
0.0419548
0.0417978
0.0416091
0.0413901
0.0411428
0.0408688
0.0405707
0.0402504
0.0399112
0.0395573
0.0391962
0.0388354
0.0384743
0.038107
0.0377309
0.0373453
0.0369511
0.0365491
0.036141
0.0357276
0.0353105
0.0348905
0.0344689
0.0340464
0.033624
0.0332025
0.0327826
0.0323649
0.0319501
0.0315385
0.031131
0.0307276
0.030329
0.0299353
0.0295465
0.0291631
0.0287853
0.0284134
0.0280474
0.0276875
0.0273337
0.0269862
0.0266448
0.0263097
0.0259808
0.0256582
0.0253417
0.0250313
0.0247269
0.0244292
0.0241385
0.0238542
0.0235761
0.0233039
0.0230374
0.0227766
0.0225213
0.0222714
0.0220268
0.0217874
0.0215532
0.0213239
0.0210996
0.02088
0.020665
0.0204543
0.020248
0.020046
0.0198482
0.0196545
0.0194649
0.0192797
0.0190991
0.018923
0.0187511
0.0185829
0.0184181
0.0182565
0.0180983
0.0179435
0.0177918
0.0176433
0.0174978
0.0173551
0.0172153
0.017078
0.0169439
0.0168144
0.0166887
0.0165634
0.0164378
0.0163176
0.016198
0.0160825
0.0159672
0.0158563
0.015745
0.0156388
0.015532
0.0154264
0.0153256
0.0152236
0.0151229
0.0150255
0.0149274
0.0148326
0.0147364
0.014645
0.0145513
0.0144578
0.0143693
0.0142768
0.0141878
0.0140955
0.0140077
0.0139149
0.0138224
0.0137259
0.0136261
0.013526
0.0134092
0.0132999
0.0131078
0.0127481
0.00308265
0.00530045
0.00711211
0.00853016
0.00976379
0.010919
0.0120497
0.0131813
0.0143239
0.015482
0.0166572
0.0178502
0.0190618
0.0202915
0.0215372
0.022796
0.0240643
0.0253382
0.0266135
0.0278865
0.0291536
0.0304115
0.0316568
0.0328869
0.034099
0.0352907
0.0364595
0.0376034
0.03872
0.0398072
0.0408631
0.041886
0.0428745
0.0438275
0.0447438
0.0456221
0.0464606
0.0472578
0.0480117
0.0487209
0.0493837
0.0499987
0.0505647
0.0510806
0.0515455
0.0519589
0.0523204
0.0526298
0.0528874
0.0530934
0.0532483
0.0533505
0.0533991
0.0534007
0.0533556
0.0532651
0.0531307
0.0529542
0.0527376
0.052483
0.0521926
0.0518688
0.0515143
0.051132
0.0507251
0.0502976
0.0498539
0.0493976
0.0489296
0.0484495
0.0479571
0.047453
0.0469383
0.0464144
0.0458828
0.045345
0.0448025
0.0442566
0.0437087
0.0431599
0.0426113
0.0420639
0.0415186
0.0409763
0.0404376
0.0399033
0.039374
0.0388501
0.0383323
0.0378207
0.0373156
0.0368174
0.0363264
0.0358428
0.0353668
0.0348986
0.0344382
0.0339856
0.033541
0.0331044
0.0326757
0.0322549
0.031842
0.031437
0.0310399
0.0306506
0.0302693
0.0298958
0.02953
0.0291717
0.0288207
0.028477
0.0281403
0.0278106
0.0274878
0.0271716
0.0268621
0.026559
0.0262622
0.0259716
0.0256871
0.0254083
0.0251353
0.024868
0.0246061
0.0243497
0.0240986
0.0238539
0.0236152
0.0233821
0.0231543
0.0229315
0.0227134
0.0224999
0.0222908
0.022086
0.0218854
0.0216888
0.0214961
0.0213073
0.0211222
0.0209405
0.0207627
0.0205882
0.0204189
0.0202519
0.0200872
0.0199271
0.0197692
0.0196159
0.0194643
0.0193171
0.019171
0.0190291
0.0188892
0.0187504
0.0186156
0.0184823
0.0183501
0.0182212
0.0180929
0.0179678
0.0178429
0.0177213
0.0176003
0.0174796
0.0173626
0.0172455
0.0171297
0.017014
0.0169005
0.016786
0.0166709
0.0165549
0.0164375
0.0163212
0.0161958
0.0160842
0.0159104
0.0156122
0.00392441
0.00732467
0.00967027
0.0114147
0.0128895
0.0142394
0.0155373
0.0168197
0.018104
0.0193974
0.0207029
0.0220215
0.0233531
0.0246965
0.0260497
0.0274103
0.0287754
0.0301421
0.0315074
0.0328684
0.0342227
0.0355676
0.0369009
0.0382205
0.0395241
0.0408098
0.0420756
0.0433193
0.0445388
0.0457322
0.0468973
0.048032
0.0491342
0.0502015
0.0512316
0.0522222
0.0531709
0.0540753
0.0549331
0.0557423
0.0565006
0.0572063
0.0578577
0.0584533
0.0589921
0.0594731
0.0598956
0.0602593
0.0605641
0.0608103
0.0609983
0.0611284
0.0611986
0.0612138
0.0611751
0.0610846
0.0609439
0.0607549
0.0605198
0.060241
0.0599212
0.0595629
0.0591691
0.058743
0.0582879
0.0578072
0.0573046
0.0567829
0.0562441
0.0556894
0.0551199
0.054537
0.0539421
0.0533369
0.0527232
0.0521025
0.0514765
0.0508468
0.0502148
0.0495819
0.0489494
0.0483183
0.0476898
0.0470647
0.0464439
0.0458282
0.0452182
0.0446146
0.0440179
0.0434285
0.0428467
0.0422729
0.0417074
0.0411504
0.0406022
0.0400629
0.0395325
0.0390113
0.0384992
0.0379963
0.0375025
0.0370179
0.0365423
0.0360758
0.0356183
0.0351698
0.0347303
0.0342995
0.0338775
0.0334641
0.0330591
0.0326623
0.0322737
0.0318931
0.0315203
0.0311553
0.0307978
0.0304477
0.0301048
0.0297691
0.0294404
0.0291184
0.0288031
0.0284943
0.0281919
0.0278957
0.0276057
0.027322
0.0270446
0.0267733
0.0265079
0.0262482
0.025994
0.025745
0.0255012
0.0252623
0.0250283
0.024799
0.0245742
0.0243538
0.0241377
0.0239258
0.0237181
0.0235141
0.0233149
0.0231192
0.0229269
0.0227397
0.0225559
0.0223765
0.0222
0.0220273
0.0218571
0.0216906
0.0215268
0.0213651
0.0212067
0.0210508
0.0208967
0.0207455
0.020596
0.0204493
0.0203039
0.0201611
0.02002
0.0198803
0.0197434
0.0196078
0.0194736
0.0193402
0.0192085
0.0190772
0.0189457
0.0188141
0.0186823
0.0185505
0.0184152
0.0182896
0.0181353
0.017871
0.00543488
0.00916277
0.0118703
0.0138552
0.0155053
0.0169912
0.0184
0.0197782
0.0211499
0.0225266
0.0239132
0.0253108
0.0267186
0.0281352
0.0295586
0.0309866
0.032417
0.0338475
0.0352761
0.0367008
0.0381196
0.0395309
0.0409328
0.0423236
0.0437014
0.0450644
0.0464106
0.0477379
0.049044
0.0503266
0.0515831
0.0528111
0.0540076
0.0551698
0.0562948
0.0573796
0.0584211
0.0594166
0.0603632
0.0612582
0.0620992
0.0628838
0.0636101
0.0642762
0.0648806
0.0654222
0.0659
0.0663135
0.0666624
0.0669468
0.0671672
0.0673241
0.0674167
0.0674479
0.0674196
0.0673335
0.0671917
0.0669963
0.0667496
0.0664544
0.0661135
0.0657297
0.0653063
0.0648464
0.0643534
0.0638308
0.0632817
0.0627091
0.0621154
0.0615029
0.0608733
0.0602285
0.0595705
0.0589011
0.0582223
0.0575359
0.0568437
0.0561475
0.0554488
0.0547491
0.0540499
0.0533523
0.0526575
0.0519666
0.0512805
0.0506001
0.0499261
0.0492591
0.0485998
0.0479486
0.047306
0.0466722
0.0460476
0.0454325
0.0448271
0.0442315
0.0436459
0.0430705
0.0425051
0.0419499
0.0414048
0.0408698
0.0403449
0.03983
0.0393251
0.0388301
0.0383449
0.0378694
0.0374035
0.0369471
0.0364999
0.0360618
0.0356328
0.0352125
0.0348009
0.0343978
0.034003
0.0336164
0.0332379
0.0328671
0.0325041
0.0321485
0.0318004
0.0314594
0.0311255
0.0307985
0.0304782
0.0301647
0.0298578
0.0295574
0.0292634
0.0289755
0.0286937
0.0284177
0.0281473
0.0278824
0.0276228
0.0273684
0.027119
0.0268745
0.0266348
0.0263996
0.026169
0.0259426
0.0257209
0.0255032
0.0252896
0.0250804
0.024875
0.0246739
0.0244763
0.0242825
0.0240919
0.0239048
0.023721
0.0235399
0.0233619
0.0231869
0.0230142
0.0228445
0.0226769
0.0225121
0.0223492
0.0221888
0.0220306
0.0218749
0.0217217
0.0215703
0.0214206
0.0212722
0.0211253
0.0209793
0.0208338
0.0206886
0.0205439
0.0203993
0.0202537
0.0201135
0.0199657
0.0197184
0.00695355
0.0106771
0.013658
0.0158377
0.0176323
0.0192322
0.0207335
0.0221893
0.023629
0.0250677
0.0265125
0.0279659
0.0294279
0.0308971
0.032372
0.0338507
0.0353314
0.0368126
0.0382927
0.0397703
0.041244
0.0427125
0.0441742
0.0456279
0.0470716
0.0485037
0.0499221
0.0513246
0.0527087
0.0540718
0.0554109
0.056723
0.058005
0.0592533
0.0604646
0.0616354
0.0627621
0.0638415
0.0648701
0.065845
0.0667631
0.0676217
0.0684185
0.0691513
0.0698183
0.070418
0.0709493
0.0714114
0.071804
0.0721269
0.0723804
0.0725653
0.0726817
0.0727313
0.0727161
0.072638
0.0724988
0.0723012
0.0720478
0.0717413
0.0713848
0.0709814
0.0705345
0.0700473
0.0695233
0.0689659
0.0683784
0.0677639
0.0671253
0.0664651
0.0657858
0.0650897
0.0643789
0.0636558
0.0629223
0.0621807
0.0614327
0.0606804
0.0599253
0.0591692
0.0584136
0.0576597
0.0569089
0.0561622
0.0554208
0.0546855
0.0539571
0.0532364
0.052524
0.0518204
0.0511261
0.0504414
0.0497667
0.0491023
0.0484484
0.0478052
0.0471729
0.0465514
0.0459409
0.0453415
0.044753
0.0441754
0.0436088
0.0430531
0.0425082
0.0419739
0.0414503
0.0409371
0.0404343
0.0399416
0.039459
0.0389862
0.0385231
0.0380696
0.0376253
0.0371903
0.0367643
0.0363471
0.0359385
0.0355384
0.0351465
0.0347628
0.0343871
0.0340191
0.0336587
0.0333058
0.0329601
0.0326215
0.03229
0.0319654
0.0316476
0.0313363
0.0310314
0.0307328
0.0304402
0.0301534
0.0298724
0.029597
0.029327
0.0290622
0.0288025
0.0285477
0.0282978
0.0280525
0.0278119
0.0275758
0.027344
0.0271166
0.0268933
0.0266742
0.026459
0.0262477
0.0260401
0.025836
0.0256354
0.025438
0.0252438
0.0250527
0.0248644
0.024679
0.0244962
0.0243161
0.0241385
0.0239633
0.0237904
0.0236199
0.0234519
0.0232859
0.0231217
0.0229591
0.0227982
0.0226385
0.0224797
0.0223216
0.0221644
0.0220077
0.0218511
0.0216973
0.02154
0.0213094
0.00835892
0.0118629
0.0150523
0.0173993
0.0193223
0.0210257
0.0226129
0.0241406
0.0256417
0.0271342
0.0286277
0.0301263
0.0316314
0.0331426
0.0346588
0.036179
0.0377019
0.0392263
0.0407512
0.0422756
0.0437984
0.0453187
0.0468352
0.0483465
0.0498511
0.0513472
0.0528327
0.0543053
0.0557621
0.0572004
0.0586168
0.060008
0.0613703
0.0626999
0.0639927
0.065245
0.0664527
0.067612
0.0687192
0.0697706
0.0707629
0.071693
0.0725581
0.0733558
0.074084
0.0747408
0.075325
0.0758355
0.0762719
0.0766339
0.0769217
0.0771359
0.0772774
0.0773474
0.0773477
0.0772801
0.0771465
0.0769499
0.0766931
0.0763792
0.0760112
0.0755926
0.0751267
0.0746171
0.0740672
0.0734807
0.0728609
0.0722111
0.0715345
0.0708341
0.0701125
0.0693725
0.0686167
0.0678473
0.0670668
0.0662775
0.0654813
0.0646803
0.0638765
0.0630714
0.0622667
0.0614639
0.0606644
0.0598692
0.0590796
0.0582965
0.0575208
0.0567533
0.0559946
0.0552453
0.0545059
0.0537768
0.0530584
0.052351
0.0516548
0.05097
0.0502969
0.0496353
0.0489855
0.0483475
0.0477212
0.0471066
0.0465036
0.0459123
0.0453325
0.0447641
0.0442069
0.0436609
0.0431259
0.0426018
0.0420883
0.0415853
0.0410927
0.0406101
0.0401376
0.0396748
0.0392215
0.0387777
0.038343
0.0379174
0.0375005
0.0370923
0.0366925
0.036301
0.0359175
0.035542
0.0351741
0.0348138
0.0344609
0.0341152
0.0337766
0.0334449
0.03312
0.0328016
0.0324896
0.0321838
0.031884
0.0315902
0.031302
0.0310194
0.0307422
0.0304701
0.0302032
0.0299412
0.0296841
0.0294316
0.0291837
0.0289404
0.0287013
0.0284666
0.0282359
0.0280093
0.0277865
0.0275674
0.027352
0.0271401
0.0269315
0.0267261
0.0265238
0.0263246
0.0261282
0.0259346
0.0257436
0.0255552
0.0253694
0.0251859
0.0250048
0.0248259
0.024649
0.024474
0.0243006
0.0241288
0.0239581
0.0237885
0.0236199
0.0234522
0.0232852
0.0231198
0.0229512
0.0227303
0.00959966
0.0127556
0.0161025
0.0185948
0.0206341
0.0224337
0.0241019
0.0256983
0.0272578
0.0288007
0.0303386
0.0318774
0.03342
0.0349673
0.0365193
0.0380755
0.0396354
0.0411982
0.0427634
0.0443304
0.0458984
0.0474667
0.0490341
0.0505996
0.0521615
0.0537181
0.0552672
0.0568063
0.0583325
0.0598425
0.061333
0.0627999
0.0642394
0.0656471
0.0670186
0.0683497
0.0696359
0.0708728
0.0720563
0.0731823
0.0742471
0.0752473
0.0761796
0.0770412
0.0778298
0.0785433
0.0791801
0.0797391
0.0802197
0.0806214
0.0809444
0.0811894
0.0813572
0.0814493
0.0814668
0.0814119
0.081286
0.0810929
0.0808356
0.0805172
0.080141
0.0797105
0.0792293
0.0787011
0.0781295
0.0775182
0.0768709
0.076191
0.0754819
0.0747468
0.0739888
0.0732109
0.0724158
0.0716063
0.0707847
0.0699536
0.0691151
0.0682715
0.0674247
0.0665766
0.0657288
0.0648829
0.0640404
0.0632025
0.0623704
0.0615452
0.0607278
0.0599189
0.0591194
0.0583298
0.0575506
0.0567823
0.0560253
0.0552799
0.0545464
0.053825
0.0531157
0.0524188
0.0517343
0.0510622
0.0504025
0.0497551
0.0491201
0.0484973
0.0478867
0.0472881
0.0467014
0.0461264
0.045563
0.045011
0.0444703
0.0439407
0.0434219
0.0429138
0.0424161
0.0419288
0.0414515
0.0409841
0.0405263
0.040078
0.039639
0.039209
0.0387879
0.0383755
0.0379716
0.0375759
0.0371883
0.0368086
0.0364366
0.0360722
0.0357151
0.0353653
0.0350225
0.0346865
0.0343572
0.0340343
0.0337178
0.0334074
0.0331029
0.0328043
0.0325112
0.0322236
0.0319414
0.0316642
0.0313921
0.0311249
0.0308625
0.0306047
0.0303513
0.0301024
0.0298577
0.0296172
0.0293807
0.029148
0.0289192
0.0286939
0.0284721
0.0282538
0.0280387
0.0278267
0.0276178
0.0274118
0.0272086
0.027008
0.0268101
0.0266147
0.0264217
0.0262311
0.0260425
0.025856
0.0256712
0.0254881
0.0253065
0.0251261
0.0249469
0.0247689
0.0245918
0.0244159
0.0242366
0.0240213
0.010646
0.0133957
0.0168599
0.0194785
0.0216227
0.0235105
0.0252541
0.0269152
0.0285301
0.0301207
0.0317002
0.0332763
0.0348532
0.0364332
0.0380173
0.039606
0.0411993
0.0427973
0.0443996
0.0460061
0.0476164
0.0492298
0.0508456
0.0524627
0.0540795
0.0556942
0.0573045
0.0589078
0.060501
0.0620807
0.0636428
0.0651834
0.066698
0.0681818
0.0696302
0.0710382
0.0724011
0.0737141
0.0749724
0.0761718
0.0773079
0.078377
0.0793755
0.0803003
0.0811487
0.0819185
0.0826078
0.0832153
0.0837402
0.0841821
0.084541
0.0848175
0.0850126
0.0851276
0.085164
0.0851237
0.0850076
0.08482
0.0845642
0.0842437
0.0838618
0.0834222
0.0829287
0.0823851
0.0817952
0.0811629
0.080492
0.0797862
0.079049
0.0782839
0.0774944
0.0766834
0.0758541
0.0750092
0.0741516
0.0732837
0.072408
0.0715268
0.0706421
0.0697558
0.0688699
0.0679859
0.0671054
0.0662297
0.06536
0.0644974
0.063643
0.0627975
0.0619617
0.0611364
0.0603219
0.0595189
0.0587277
0.0579486
0.0571819
0.0564279
0.0556867
0.0549584
0.0542431
0.0535408
0.0528514
0.052175
0.0515115
0.0508608
0.0502228
0.0495974
0.0489844
0.0483837
0.0477951
0.0472185
0.0466536
0.0461002
0.0455582
0.0450273
0.0445074
0.0439982
0.0434994
0.043011
0.0425327
0.0420642
0.0416053
0.0411559
0.0407158
0.0402846
0.0398623
0.0394486
0.0390432
0.0386461
0.038257
0.0378757
0.037502
0.0371358
0.0367768
0.0364249
0.0360799
0.0357416
0.0354098
0.0350844
0.0347651
0.0344518
0.0341443
0.0338425
0.0335461
0.0332551
0.0329693
0.0326885
0.0324126
0.0321415
0.031875
0.031613
0.0313554
0.0311021
0.0308528
0.0306076
0.0303663
0.0301287
0.0298947
0.0296642
0.0294372
0.0292133
0.0289927
0.028775
0.0285603
0.0283484
0.0281392
0.0279326
0.0277285
0.0275268
0.0273273
0.0271299
0.0269345
0.0267408
0.0265488
0.0263582
0.026169
0.0259811
0.0257943
0.0256084
0.0254193
0.0252036
0.0114809
0.0138246
0.0173697
0.0200961
0.0223334
0.0243007
0.026113
0.0278335
0.0294997
0.0311347
0.0327532
0.0343641
0.035973
0.0375833
0.0391973
0.0408161
0.0424406
0.0440714
0.0457088
0.0473529
0.0490036
0.0506605
0.052323
0.05399
0.0556601
0.0573314
0.0590014
0.0606674
0.0623261
0.0639737
0.0656061
0.0672187
0.0688067
0.0703651
0.0718887
0.0733723
0.0748104
0.0761979
0.0775297
0.078801
0.0800072
0.0811441
0.0822078
0.0831949
0.0841024
0.0849278
0.0856691
0.0863249
0.086894
0.0873762
0.0877713
0.08808
0.0883031
0.088442
0.0884986
0.0884739
0.0883693
0.0881886
0.0879361
0.0876153
0.0872298
0.0867834
0.08628
0.0857237
0.0851185
0.0844682
0.0837771
0.0830489
0.0822874
0.0814963
0.0806792
0.0798393
0.07898
0.0781042
0.0772148
0.0763146
0.0754061
0.0744916
0.0735734
0.0726536
0.0717339
0.0708162
0.0699021
0.0689928
0.0680898
0.0671942
0.066307
0.0654291
0.0645613
0.0637042
0.0628585
0.0620247
0.0612031
0.0603942
0.0595982
0.0588154
0.0580458
0.0572897
0.056547
0.0558179
0.0551022
0.0544001
0.0537113
0.0530359
0.0523736
0.0517244
0.0510881
0.0504645
0.0498535
0.0492549
0.0486685
0.048094
0.0475313
0.0469802
0.0464404
0.0459117
0.0453938
0.0448866
0.0443899
0.0439033
0.0434267
0.0429599
0.0425026
0.0420546
0.0416157
0.0411857
0.0407644
0.0403515
0.0399469
0.0395503
0.0391615
0.0387804
0.0384068
0.0380404
0.0376811
0.0373287
0.0369829
0.0366437
0.0363108
0.035984
0.0356632
0.0353483
0.0350389
0.034735
0.0344365
0.0341431
0.0338547
0.0335712
0.0332925
0.0330183
0.0327486
0.0324833
0.0322222
0.0319652
0.0317121
0.0314629
0.0312175
0.0309756
0.0307372
0.0305022
0.0302704
0.0300418
0.0298162
0.0295935
0.0293735
0.0291563
0.0289416
0.0287294
0.0285196
0.0283119
0.0281062
0.0279025
0.0277005
0.0275001
0.0273013
0.0271039
0.0269077
0.0267124
0.0265142
0.0262963
0.0120923
0.0140683
0.0176657
0.0204826
0.0228015
0.0248396
0.0267134
0.0284874
0.0302003
0.0318762
0.0335307
0.0351742
0.0368132
0.0384524
0.0400948
0.0417425
0.0433972
0.0450599
0.0467315
0.0484124
0.0501028
0.0518026
0.053511
0.0552273
0.0569499
0.0586768
0.0604056
0.0621332
0.0638561
0.0655704
0.0672715
0.0689546
0.0706145
0.0722458
0.0738428
0.0753999
0.0769114
0.0783716
0.079775
0.0811165
0.0823911
0.0835942
0.0847216
0.0857696
0.0867349
0.087615
0.0884075
0.0891108
0.0897238
0.090246
0.0906772
0.0910182
0.0912697
0.0914333
0.0915107
0.0915025
0.0914106
0.0912378
0.0909898
0.0906702
0.0902827
0.0898314
0.0893202
0.0887535
0.0881353
0.0874698
0.0867613
0.0860138
0.0852313
0.0844176
0.0835764
0.0827114
0.0818258
0.0809229
0.0800057
0.079077
0.0781396
0.0771959
0.0762483
0.0752988
0.0743495
0.073402
0.0724582
0.0715194
0.0705871
0.0696623
0.0687462
0.0678397
0.0669437
0.0660587
0.0651855
0.0643245
0.0634762
0.062641
0.0618191
0.0610108
0.0602163
0.0594356
0.0586689
0.0579161
0.0571773
0.0564524
0.0557413
0.055044
0.0543603
0.0536901
0.0530331
0.0523894
0.0517586
0.0511405
0.050535
0.0499418
0.0493608
0.0487917
0.0482342
0.0476881
0.0471532
0.0466293
0.0461161
0.0456134
0.0451209
0.0446384
0.0441658
0.0437027
0.0432489
0.0428042
0.0423684
0.0419412
0.0415225
0.041112
0.0407096
0.0403149
0.0399279
0.0395483
0.0391759
0.0388105
0.0384519
0.0381
0.0377545
0.0374153
0.0370822
0.036755
0.0364336
0.0361177
0.0358073
0.0355021
0.035202
0.0349069
0.0346167
0.0343311
0.0340501
0.0337735
0.0335012
0.033233
0.0329689
0.0327088
0.0324524
0.0321997
0.0319506
0.0317049
0.0314625
0.0312234
0.0309874
0.0307543
0.0305241
0.0302967
0.0300719
0.0298496
0.0296298
0.0294122
0.0291968
0.0289833
0.0287717
0.0285619
0.0283537
0.0281471
0.027942
0.0277376
0.027531
0.0273098
0.0124568
0.0141134
0.0177611
0.020662
0.0230532
0.0251547
0.0270835
0.0289057
0.0306609
0.0323744
0.0340627
0.035737
0.0374053
0.0390728
0.0407436
0.0424206
0.0441059
0.0458011
0.0475076
0.049226
0.0509568
0.0526999
0.0544548
0.0562205
0.0579956
0.0597779
0.0615647
0.063353
0.0651389
0.0669182
0.0686862
0.0704376
0.0721669
0.0738684
0.0755361
0.077164
0.0787459
0.0802759
0.0817481
0.0831569
0.0844972
0.0857639
0.0869527
0.0880595
0.0890808
0.0900138
0.090856
0.0916056
0.0922615
0.0928229
0.0932898
0.0936627
0.0939425
0.0941308
0.0942296
0.0942383
0.0941599
0.0939956
0.093753
0.0934356
0.0930474
0.0925925
0.0920753
0.0914999
0.0908709
0.0901925
0.0894691
0.088705
0.0879042
0.0870709
0.0862089
0.0853219
0.0844134
0.0834868
0.0825453
0.0815919
0.0806292
0.0796599
0.0786865
0.0777111
0.0767358
0.0757624
0.0747926
0.0738281
0.07287
0.0719198
0.0709785
0.070047
0.0691263
0.0682169
0.0673197
0.066435
0.0655634
0.0647052
0.0638607
0.0630302
0.0622139
0.0614118
0.060624
0.0598506
0.0590915
0.0583467
0.0576161
0.0568997
0.0561972
0.0555085
0.0548335
0.054172
0.0535238
0.0528887
0.0522664
0.0516568
0.0510596
0.0504745
0.0499014
0.04934
0.04879
0.0482512
0.0477234
0.0472063
0.0466997
0.0462032
0.0457168
0.0452401
0.0447729
0.044315
0.0438662
0.0434261
0.0429947
0.0425716
0.0421566
0.0417496
0.0413504
0.0409587
0.0405742
0.040197
0.0398266
0.039463
0.0391059
0.0387551
0.0384106
0.038072
0.0377393
0.0374122
0.0370906
0.0367744
0.0364634
0.0361574
0.0358563
0.0355599
0.0352682
0.0349809
0.034698
0.0344193
0.0341447
0.0338741
0.0336073
0.0333443
0.0330849
0.032829
0.0325765
0.0323273
0.0320812
0.0318382
0.0315981
0.0313609
0.0311263
0.0308944
0.0306649
0.0304378
0.0302129
0.02999
0.0297692
0.0295502
0.029333
0.0291174
0.0289035
0.0286905
0.028476
0.028251
0.0125819
0.0140436
0.0177015
0.0206551
0.0231098
0.02527
0.0272499
0.0291155
0.0309098
0.0326588
0.0343798
0.0360851
0.0377833
0.0394808
0.0411821
0.0428908
0.0446095
0.0463403
0.0480846
0.0498433
0.051617
0.0534057
0.0552087
0.0570251
0.0588531
0.0606907
0.0625349
0.0643824
0.0662291
0.0680707
0.0699022
0.0717181
0.0735127
0.07528
0.0770137
0.0787075
0.080355
0.08195
0.0834863
0.0849582
0.0863599
0.0876864
0.088933
0.0900952
0.0911696
0.0921528
0.0930423
0.0938362
0.0945332
0.0951323
0.0956336
0.0960375
0.0963448
0.0965572
0.096677
0.0967027
0.0966383
0.0964828
0.096246
0.0959315
0.0955435
0.0950862
0.0945641
0.0939817
0.0933435
0.0926541
0.0919179
0.0911395
0.090323
0.0894727
0.0885926
0.0876866
0.0867583
0.0858112
0.0848486
0.0838736
0.0828891
0.0818977
0.0809019
0.0799041
0.0789063
0.0779104
0.0769183
0.0759314
0.0749512
0.073979
0.0730159
0.0720629
0.0711209
0.0701906
0.0692726
0.0683675
0.0674758
0.0665979
0.065734
0.0648844
0.0640492
0.0632287
0.0624228
0.0616316
0.060855
0.0600931
0.0593457
0.0586127
0.057894
0.0571894
0.0564988
0.0558219
0.0551586
0.0545086
0.0538718
0.0532478
0.0526365
0.0520375
0.0514508
0.0508759
0.0503126
0.0497608
0.04922
0.0486902
0.048171
0.0476622
0.0471635
0.0466747
0.0461956
0.0457258
0.0452652
0.0448135
0.0443706
0.0439361
0.0435098
0.0430916
0.0426812
0.0422783
0.0418829
0.0414947
0.0411134
0.040739
0.0403711
0.0400097
0.0396545
0.0393053
0.0389621
0.0386245
0.0382925
0.0379659
0.0376445
0.0373282
0.0370168
0.0367103
0.0364084
0.0361109
0.0358179
0.0355292
0.0352446
0.034964
0.0346873
0.0344144
0.0341451
0.0338794
0.0336172
0.0333582
0.0331025
0.0328499
0.0326003
0.0323535
0.0321096
0.0318682
0.0316294
0.031393
0.0311589
0.030927
0.0306971
0.0304692
0.0302431
0.030019
0.0297965
0.0295753
0.0293532
0.029124
0.0124858
0.0138519
0.0175155
0.0205198
0.0230186
0.0252194
0.0272389
0.0291449
0.0309786
0.0327646
0.0345199
0.0362591
0.0379914
0.0397239
0.0414615
0.0432082
0.0449668
0.0467395
0.0485277
0.0503325
0.0521542
0.0539925
0.0558467
0.0577156
0.0595974
0.0614896
0.0633892
0.0652927
0.067196
0.0690946
0.0709834
0.072857
0.0747094
0.0765347
0.0783264
0.0800782
0.0817835
0.0834359
0.0850291
0.0865571
0.0880139
0.0893942
0.0906931
0.0919059
0.0930287
0.0940582
0.0949915
0.0958265
0.0965618
0.0971963
0.0977299
0.0981629
0.0984962
0.0987312
0.0988695
0.0989124
0.0988621
0.0987162
0.0984852
0.0981737
0.0977862
0.0973272
0.0968011
0.0962127
0.0955667
0.0948678
0.0941207
0.0933299
0.0924999
0.0916349
0.0907393
0.0898169
0.0888716
0.0879069
0.0869262
0.0859327
0.0849295
0.0839191
0.0829043
0.0818873
0.0808704
0.0798554
0.0788442
0.0778384
0.0768394
0.0758486
0.0748671
0.0738958
0.0729358
0.0719878
0.0710523
0.07013
0.0692214
0.0683268
0.0674465
0.0665807
0.0657298
0.0648936
0.0640724
0.0632662
0.0624749
0.0616984
0.0609368
0.0601898
0.0594573
0.0587392
0.0580353