/*--------------------------------*- C++ -*----------------------------------*\
| =========                 |                                                 |
| \\      /  F ield         | OpenFOAM: The Open Source CFD Toolbox           |
|  \\    /   O peration     | Version:  2112                                  |
|   \\  /    A nd           | Website:  www.openfoam.com                      |
|    \\/     M anipulation  |                                                 |
\*---------------------------------------------------------------------------*/
FoamFile
{
    version     2.0;
    format      ascii;
    arch        "LSB;label=32;scalar=64";
    class       volScalarField;
    location    "100";
    object      nut;
}
// * * * * * * * * * * * * * * * * * * * * * * * * * * * * * * * * * * * * * //

dimensions      [0 2 -1 0 0 0 0];

internalField   nonuniform List<scalar> 
12225
(
1.57487e-05
1.07748e-05
9.98067e-06
9.62669e-06
9.41577e-06
9.26672e-06
9.15096e-06
9.05631e-06
8.97654e-06
8.90838e-06
8.85019e-06
8.80161e-06
8.76329e-06
8.73717e-06
8.73034e-06
8.74759e-06
8.81083e-06
8.96695e-06
0.000127891
9.26376e-05
8.31897e-05
7.56686e-05
6.96414e-05
6.46394e-05
6.04023e-05
5.67581e-05
5.3589e-05
5.08093e-05
4.83542e-05
4.61737e-05
4.42275e-05
4.249e-05
4.0915e-05
3.953e-05
3.8269e-05
3.74779e-05
0.000295862
0.000209497
0.000188723
0.000174314
0.000162827
0.000153164
0.000144831
0.000137535
0.000131084
0.000125341
0.000120205
0.000115599
0.000111466
0.000107777
0.000104494
0.000101692
9.94837e-05
9.80914e-05
0.000457035
0.000329034
0.000295187
0.000274741
0.000259136
0.000246122
0.000234856
0.000224922
0.000216065
0.000208119
0.000200962
0.000194508
0.000188698
0.000183507
0.000178931
0.000175071
0.000172159
0.000170199
0.000587638
0.000441112
0.000395638
0.000369736
0.000350765
0.000335221
0.000321823
0.000309992
0.000299407
0.000289866
0.000281235
0.00027342
0.000266362
0.000260039
0.000254464
0.000249742
0.000246099
0.000243547
0.000683914
0.000540601
0.00048757
0.000457175
0.000435453
0.000417944
0.000402966
0.000389766
0.000377945
0.000367265
0.000357572
0.000348766
0.000340784
0.000333604
0.000327241
0.000321783
0.000317404
0.000314134
0.00075013
0.000625053
0.000569474
0.000536136
0.00051237
0.000493392
0.000477269
0.000463108
0.00045043
0.000438961
0.000428527
0.000419019
0.00041037
0.000402551
0.00039557
0.00038949
0.000384425
0.000380401
0.000792497
0.000694449
0.000640338
0.000606011
0.000581113
0.000561213
0.000544385
0.000529617
0.000516388
0.000504401
0.000493479
0.000483504
0.000474398
0.000466121
0.000458673
0.00045209
0.000446435
0.000441715
0.000819227
0.00074753
0.000699463
0.000666333
0.00064144
0.000621362
0.000604275
0.000589248
0.000575765
0.000563523
0.000552334
0.000542078
0.000532677
0.000524088
0.0005163
0.000509327
0.000503197
0.000497897
0.000835296
0.000786281
0.000746835
0.000716851
0.000693198
0.000673628
0.000656774
0.000641854
0.000628409
0.000616159
0.000604924
0.00059459
0.000585079
0.000576347
0.000568372
0.000561154
0.000554696
0.000548971
0.000844401
0.000813119
0.000783054
0.00075761
0.000736257
0.000717947
0.000701855
0.000687434
0.000674333
0.000662325
0.000651258
0.000641031
0.000631576
0.000622849
0.000614825
0.000607493
0.000600843
0.000594841
0.000848758
0.000829101
0.000807039
0.000786367
0.000767852
0.000751312
0.000736395
0.000722798
0.000710304
0.000698756
0.000688042
0.000678086
0.000668834
0.000660247
0.000652304
0.000644989
0.000638284
0.000632156
0.000850954
0.000839353
0.000824135
0.000808218
0.000792873
0.000778482
0.000765078
0.000752588
0.000740935
0.000730045
0.000719852
0.000710312
0.000701389
0.000693059
0.000685302
0.000678104
0.000671446
0.000665297
0.000851817
0.000845673
0.000836356
0.000825336
0.000813717
0.00080206
0.000790687
0.000779777
0.000769369
0.000759476
0.000750088
0.000741208
0.000732828
0.000724935
0.000717523
0.000710583
0.0007041
0.00069805
0.000851745
0.000848381
0.000843184
0.000836363
0.000828462
0.000819965
0.00081119
0.000802335
0.000793578
0.000785038
0.000776787
0.000768866
0.000761288
0.000754058
0.000747188
0.000740681
0.000734532
0.00072873
0.000851196
0.000848461
0.000845328
0.000841339
0.000836439
0.000830829
0.000824699
0.000818213
0.000811517
0.000804729
0.00079796
0.000791274
0.000784733
0.000778384
0.000772252
0.000766354
0.000760701
0.000755297
0.000850579
0.000847289
0.000844547
0.000841843
0.000838823
0.00083533
0.000831345
0.000826921
0.000822148
0.000817109
0.000811886
0.000806555
0.000801184
0.000795829
0.000790533
0.000785332
0.000780256
0.000775328
0.000850204
0.000846284
0.000843253
0.000840756
0.000838405
0.00083592
0.000833135
0.000829977
0.00082643
0.00082253
0.000818333
0.000813907
0.000809321
0.000804635
0.000799908
0.00079518
0.000790486
0.000785848
0.000850323
0.000846578
0.000843619
0.00084108
0.000838587
0.000835896
0.000832863
0.000829437
0.000825627
0.000821476
0.00081705
0.00081241
0.00080762
0.000802737
0.000797811
0.000792885
0.000787994
0.000783171
0.000851013
0.000848133
0.000845194
0.000841732
0.000837555
0.000832706
0.000827341
0.000821589
0.000815558
0.000809345
0.000803024
0.000796657
0.000790306
0.000784018
0.00077783
0.000771772
0.000765867
0.000760135
0.000851716
0.000848154
0.000842821
0.000835968
0.000828115
0.000819718
0.000811024
0.000802203
0.000793415
0.000784762
0.000776304
0.000768078
0.000760112
0.000752423
0.000745016
0.000737891
0.00073105
0.000724494
0.000851337
0.000842348
0.000830113
0.000816701
0.000803262
0.000790195
0.000777642
0.000765688
0.00075434
0.000743569
0.000733347
0.000723652
0.000714439
0.000705672
0.000697326
0.000689384
0.000681827
0.000674646
0.000847133
0.000823715
0.000799293
0.000777178
0.000757672
0.000740384
0.000724866
0.000710732
0.000697692
0.000685567
0.000674235
0.000663606
0.000653606
0.000644175
0.000635268
0.000626847
0.000618884
0.00061136
0.000833548
0.000783284
0.000743684
0.000713628
0.000689935
0.000670248
0.000653204
0.000638014
0.00062421
0.000611509
0.000599731
0.00058875
0.000578477
0.000568839
0.000559779
0.000551251
0.000543221
0.000535671
0.000800524
0.000711968
0.000660112
0.00062621
0.00060122
0.000581187
0.000564087
0.000548946
0.000535248
0.000522693
0.000511094
0.000500321
0.00049028
0.000480896
0.000472109
0.000463868
0.000456139
0.00044891
0.000732543
0.00060358
0.000549627
0.000517438
0.000494324
0.000475659
0.000459663
0.000445484
0.00043267
0.000420954
0.000410164
0.000400179
0.000390908
0.000382277
0.000374227
0.000366707
0.000359679
0.000353146
0.000606509
0.000463013
0.000417548
0.000391394
0.000372133
0.000356216
0.00034238
0.00033005
0.000318908
0.000308751
0.000299439
0.000290869
0.000282956
0.000275633
0.000268841
0.000262531
0.000256664
0.00025126
0.000412936
0.000299308
0.000271196
0.000253115
0.000238853
0.00022676
0.000216177
0.000206768
0.00019832
0.000190683
0.000183744
0.000177416
0.000171625
0.000166312
0.000161426
0.000156921
0.000152761
0.000148979
0.000181853
0.000133342
0.000122043
0.000112549
0.000104767
9.81952e-05
9.2522e-05
8.75621e-05
8.31856e-05
7.92956e-05
7.58176e-05
7.26929e-05
6.98741e-05
6.73219e-05
6.50041e-05
6.2892e-05
6.09592e-05
5.92333e-05
2.15718e-05
1.47129e-05
1.35355e-05
1.30004e-05
1.26629e-05
1.24119e-05
1.22091e-05
1.20368e-05
1.18855e-05
1.17497e-05
1.16257e-05
1.15111e-05
1.14043e-05
1.13042e-05
1.12097e-05
1.11204e-05
1.10349e-05
1.09552e-05
1.93414e-06
4.77222e-06
5.38209e-06
5.89622e-06
6.3321e-06
6.74547e-06
7.23065e-06
7.78761e-06
8.37808e-06
8.97918e-06
9.57932e-06
1.0173e-05
1.07552e-05
1.13219e-05
1.18688e-05
1.23934e-05
1.2893e-05
1.33671e-05
1.38144e-05
1.4236e-05
1.46317e-05
1.5004e-05
1.53513e-05
1.56746e-05
1.59736e-05
1.62509e-05
1.6506e-05
1.67413e-05
1.69561e-05
1.71528e-05
1.73306e-05
1.7492e-05
1.76376e-05
1.77736e-05
1.78937e-05
1.80016e-05
1.80967e-05
1.81805e-05
1.82525e-05
1.83141e-05
1.83645e-05
1.84052e-05
1.84358e-05
1.84584e-05
1.84639e-05
1.84617e-05
1.84527e-05
1.84339e-05
1.84053e-05
1.83681e-05
1.83225e-05
1.82663e-05
1.82006e-05
1.8127e-05
1.80463e-05
1.79576e-05
1.78621e-05
1.77592e-05
1.76501e-05
1.7534e-05
1.74127e-05
1.72852e-05
1.71531e-05
1.70157e-05
1.68743e-05
1.6727e-05
1.65724e-05
1.64484e-05
1.63874e-05
1.63481e-05
1.63136e-05
1.62782e-05
1.62414e-05
1.6202e-05
1.6161e-05
1.61176e-05
1.60729e-05
1.60264e-05
1.59787e-05
1.59297e-05
1.58799e-05
1.5829e-05
1.57776e-05
1.57254e-05
1.5673e-05
1.56201e-05
1.55671e-05
1.5514e-05
1.54608e-05
1.54076e-05
1.53544e-05
1.53014e-05
1.52486e-05
1.51961e-05
1.51439e-05
1.50921e-05
1.50406e-05
1.49895e-05
1.49388e-05
1.48885e-05
1.48386e-05
1.47892e-05
1.47401e-05
1.46915e-05
1.46432e-05
1.45953e-05
1.45482e-05
1.45016e-05
1.44556e-05
1.44099e-05
1.43647e-05
1.43199e-05
1.42754e-05
1.42313e-05
1.41874e-05
1.41439e-05
1.41006e-05
1.40576e-05
1.40148e-05
1.39723e-05
1.393e-05
1.38878e-05
1.38458e-05
1.38039e-05
1.37622e-05
1.37206e-05
1.36791e-05
1.36378e-05
1.35968e-05
1.3556e-05
1.35154e-05
1.34749e-05
1.34346e-05
1.33941e-05
1.33537e-05
1.33133e-05
1.32729e-05
1.32325e-05
1.31922e-05
1.3152e-05
1.31116e-05
1.30723e-05
1.3029e-05
1.29939e-05
1.29509e-05
1.29139e-05
1.28762e-05
1.28322e-05
1.27969e-05
1.27531e-05
1.27178e-05
1.26742e-05
1.26383e-05
1.25969e-05
1.25549e-05
1.25189e-05
1.24777e-05
1.24358e-05
1.23999e-05
1.23566e-05
1.23202e-05
1.22766e-05
1.2239e-05
1.21965e-05
1.21532e-05
1.21144e-05
1.20707e-05
1.20258e-05
1.1984e-05
1.19399e-05
1.18912e-05
1.18396e-05
1.17888e-05
1.17327e-05
1.16668e-05
1.15916e-05
1.15098e-05
1.13987e-05
1.12349e-05
1.09462e-05
2.72983e-06
1.06737e-05
2.22516e-05
3.0338e-05
3.49842e-05
3.77748e-05
3.96503e-05
4.11668e-05
4.26288e-05
4.41694e-05
4.58141e-05
4.7672e-05
4.97767e-05
5.21361e-05
5.47465e-05
5.7596e-05
6.06674e-05
6.39396e-05
6.73887e-05
7.09894e-05
7.47161e-05
7.85445e-05
8.24539e-05
8.64213e-05
9.04233e-05
9.44371e-05
9.84408e-05
0.000102412
0.000106325
0.000110149
0.000113838
0.000117324
0.000120489
0.000123388
0.000126172
0.000128863
0.000131465
0.000133975
0.000136392
0.000138713
0.000140934
0.000143051
0.000145062
0.000146962
0.000148757
0.000150451
0.000152032
0.000153526
0.000154902
0.000156184
0.000157371
0.000158413
0.00015934
0.000160172
0.00016091
0.000161552
0.000162098
0.000162553
0.000162918
0.000163196
0.000163388
0.000163497
0.000163519
0.000163448
0.000163258
0.000162891
0.000162214
0.000161096
0.000159633
0.000157967
0.000156183
0.000154329
0.000152429
0.000150498
0.000148545
0.000146578
0.0001446
0.000142619
0.000140636
0.000138656
0.000136682
0.000134716
0.000132761
0.000130819
0.000128892
0.000126982
0.00012509
0.000123218
0.000121366
0.000119537
0.000117731
0.000115949
0.000114192
0.00011246
0.000110754
0.000109073
0.000107418
0.000105791
0.000104189
0.000102615
0.000101068
9.95484e-05
9.80555e-05
9.65857e-05
9.51389e-05
9.37206e-05
9.23329e-05
9.0973e-05
8.96399e-05
8.83334e-05
8.70529e-05
8.57983e-05
8.45694e-05
8.33657e-05
8.2187e-05
8.10331e-05
7.99033e-05
7.87975e-05
7.77152e-05
7.66563e-05
7.56181e-05
7.46007e-05
7.3604e-05
7.26281e-05
7.1673e-05
7.07386e-05
6.9824e-05
6.89329e-05
6.80651e-05
6.72188e-05
6.63938e-05
6.55809e-05
6.47791e-05
6.39932e-05
6.32247e-05
6.24739e-05
6.174e-05
6.1022e-05
6.03196e-05
5.96321e-05
5.89608e-05
5.82953e-05
5.76941e-05
5.70256e-05
5.65798e-05
5.5865e-05
5.52222e-05
5.48023e-05
5.40972e-05
5.36889e-05
5.29981e-05
5.26112e-05
5.19443e-05
5.15706e-05
5.10586e-05
5.04425e-05
5.00879e-05
4.96006e-05
4.90086e-05
4.86714e-05
4.80813e-05
4.77596e-05
4.7184e-05
4.68784e-05
4.64259e-05
4.58838e-05
4.559e-05
4.51464e-05
4.46557e-05
4.41965e-05
4.3911e-05
4.34809e-05
4.2982e-05
4.25067e-05
4.2177e-05
4.16897e-05
4.10672e-05
4.06676e-05
3.94642e-05
3.73974e-05
3.23599e-06
1.89806e-05
4.05102e-05
5.77766e-05
6.97918e-05
7.80319e-05
8.40383e-05
8.89392e-05
9.34681e-05
9.8068e-05
0.000103114
0.000108502
0.000114278
0.000120447
0.00012699
0.000133874
0.000141055
0.000148485
0.000156114
0.000163891
0.000171769
0.000179703
0.000187656
0.000195587
0.000203464
0.000211253
0.000218923
0.000226444
0.000233784
0.000240908
0.000247776
0.000254347
0.000260599
0.000266566
0.000272298
0.000277813
0.000283115
0.000288202
0.00029307
0.000297715
0.00030213
0.000306311
0.000310254
0.000313955
0.000317416
0.000320635
0.000323607
0.000326332
0.000328834
0.00033113
0.00033319
0.000334991
0.000336509
0.000337817
0.000338906
0.00033978
0.000340443
0.000340902
0.000341163
0.000341231
0.000341111
0.000340805
0.000340311
0.000339618
0.000338698
0.000337496
0.000335931
0.000333935
0.000331542
0.000328844
0.000325926
0.00032285
0.000319659
0.00031638
0.000313035
0.00030964
0.000306205
0.000302743
0.00029926
0.000295766
0.000292266
0.000288766
0.000285272
0.000281788
0.000278319
0.000274868
0.000271438
0.000268033
0.000264654
0.000261306
0.00025799
0.000254709
0.000251464
0.000248255
0.000245085
0.000241954
0.000238863
0.000235812
0.000232802
0.000229834
0.000226907
0.000224023
0.000221181
0.00021838
0.000215618
0.000212896
0.000210217
0.000207579
0.000204982
0.000202426
0.000199912
0.000197439
0.000195007
0.000192616
0.000190266
0.000187956
0.000185685
0.000183455
0.000181263
0.00017911
0.000176982
0.000174886
0.000172824
0.000170797
0.000168806
0.00016685
0.000164929
0.000163058
0.000161231
0.000159443
0.000157691
0.000155968
0.000154272
0.000152604
0.000150965
0.000149356
0.000147774
0.000146218
0.000144686
0.000143179
0.0001417
0.000140238
0.000138842
0.0001374
0.000136153
0.000134756
0.000133366
0.000132178
0.000130817
0.000129671
0.000128347
0.000127239
0.000125956
0.000124867
0.00012374
0.000122504
0.000121458
0.000120377
0.000119184
0.000118191
0.000117031
0.000116068
0.000114935
0.000113987
0.000112984
0.000111875
0.000110955
0.00010997
0.000108925
0.000107877
0.00010697
0.000105982
0.000104903
0.000103766
0.000102895
0.000101644
0.000100428
9.90684e-05
9.65236e-05
9.14687e-05
3.63055e-06
2.56583e-05
5.50734e-05
7.95973e-05
9.84207e-05
0.000112763
0.000124189
0.000133956
0.000142961
0.000151791
0.000160708
0.000169955
0.000179571
0.000189554
0.000199875
0.000210488
0.000221337
0.000232363
0.000243506
0.000254712
0.000265927
0.000277103
0.0002882
0.000299177
0.000310001
0.000320639
0.000331063
0.000341244
0.000351158
0.000360779
0.000370084
0.000379053
0.000387684
0.000395985
0.000403969
0.000411643
0.000419008
0.00042606
0.000432794
0.000439203
0.000445283
0.000451026
0.000456429
0.000461486
0.000466196
0.000470556
0.000474564
0.000478221
0.000481527
0.000484525
0.0004872
0.000489531
0.000491467
0.00049308
0.000494369
0.00049535
0.000496028
0.000496411
0.000496507
0.000496325
0.000495873
0.000495154
0.000494171
0.000492917
0.000491376
0.000489521
0.000487316
0.000484739
0.000481806
0.000478565
0.000475071
0.000471374
0.000467514
0.000463525
0.000459431
0.000455252
0.000451007
0.000446708
0.000442368
0.000437999
0.000433609
0.000429207
0.0004248
0.000420396
0.000416
0.000411617
0.000407252
0.00040291
0.000398594
0.00039431
0.00039006
0.000385847
0.000381674
0.000377543
0.000373454
0.000369409
0.000365411
0.000361458
0.000357553
0.000353697
0.000349889
0.00034613
0.00034242
0.000338759
0.000335145
0.000331581
0.000328064
0.000324596
0.000321175
0.000317803
0.00031448
0.000311204
0.000307977
0.000304797
0.000301665
0.00029858
0.000295543
0.000292551
0.000289606
0.000286707
0.000283846
0.000281024
0.000278243
0.000275502
0.000272804
0.000270146
0.000267531
0.000264962
0.000262439
0.000259959
0.000257521
0.000255121
0.000252755
0.000250424
0.000248127
0.000245865
0.000243623
0.000241407
0.000239219
0.00023706
0.000234932
0.00023283
0.000230781
0.000228722
0.000226787
0.000224806
0.000222823
0.000220982
0.000219082
0.000217304
0.000215456
0.000213723
0.000211914
0.000210205
0.000208508
0.000206748
0.00020509
0.000203446
0.000201737
0.00020014
0.000198469
0.000196907
0.000195267
0.000193723
0.000192175
0.000190563
0.000189052
0.000187528
0.00018596
0.00018437
0.000182849
0.000181283
0.000179633
0.000177881
0.000176238
0.000174321
0.000172239
0.000170247
0.00016678
0.000159443
4.27797e-06
2.84157e-05
6.45007e-05
9.6497e-05
0.000122435
0.0001433
0.00016051
0.000175409
0.000188996
0.000201955
0.000214709
0.000227559
0.000240569
0.000253784
0.000267196
0.000280771
0.000294463
0.000308218
0.000321982
0.000335704
0.000349338
0.000362841
0.000376176
0.000389309
0.000402211
0.000414856
0.000427221
0.000439284
0.000451026
0.000462432
0.000473488
0.000484181
0.000494508
0.000504468
0.000514062
0.00052329
0.000532149
0.000540633
0.000548737
0.000556452
0.000563771
0.000570688
0.000577196
0.00058329
0.000588964
0.000594217
0.000599045
0.000603449
0.000607428
0.000610995
0.000614187
0.000616955
0.000619278
0.000621192
0.000622712
0.000623849
0.000624613
0.000625012
0.000625058
0.000624763
0.000624136
0.000623187
0.000621921
0.00062034
0.000618441
0.000616218
0.000613661
0.000610769
0.000607555
0.00060405
0.000600287
0.000596305
0.000592137
0.000587813
0.000583358
0.000578794
0.000574141
0.000569415
0.00056463
0.0005598
0.000554935
0.000550046
0.000545143
0.000540233
0.000535324
0.000530421
0.000525529
0.000520657
0.00051581
0.000510992
0.000506208
0.00050146
0.000496751
0.000492085
0.000487462
0.000482886
0.000478356
0.000473876
0.000469445
0.000465064
0.000460735
0.000456457
0.000452231
0.000448057
0.000443935
0.000439865
0.000435847
0.00043188
0.000427966
0.000424102
0.00042029
0.000416529
0.000412819
0.00040916
0.000405551
0.000401992
0.000398483
0.000395022
0.00039161
0.000388246
0.000384926
0.000381651
0.000378419
0.00037523
0.000372085
0.000368984
0.000365927
0.000362915
0.000359948
0.000357026
0.000354146
0.000351306
0.000348504
0.000345739
0.00034301
0.000340317
0.000337652
0.000335016
0.000332409
0.000329832
0.000327285
0.000324767
0.000322289
0.000319825
0.000317434
0.000315048
0.000312668
0.000310366
0.000308059
0.00030582
0.000303567
0.000301362
0.000299132
0.000296952
0.000294795
0.000292614
0.000290484
0.000288379
0.000286247
0.000284173
0.000282076
0.000280034
0.000277965
0.000275943
0.000273933
0.0002719
0.000269913
0.000267925
0.000265907
0.000263859
0.000261828
0.000259757
0.000257604
0.000255336
0.00025305
0.00025054
0.000247753
0.000245085
0.000240984
0.000232449
4.84742e-06
2.94274e-05
7.02017e-05
0.000108999
0.000141561
0.00016884
0.00019187
0.000211917
0.000230037
0.000246995
0.000263309
0.000279322
0.000295228
0.000311092
0.000326946
0.000342785
0.000358587
0.000374317
0.000389937
0.00040541
0.000420701
0.000435778
0.000450615
0.000465187
0.000479473
0.000493455
0.000507116
0.000520442
0.000533419
0.000546035
0.000558276
0.000570145
0.000581641
0.000592763
0.000603506
0.000613864
0.000623831
0.000633399
0.000642557
0.000651297
0.000659607
0.00066748
0.000674905
0.000681874
0.000688381
0.00069442
0.000699986
0.000705077
0.000709693
0.000713834
0.000717529
0.000720759
0.00072351
0.000725792
0.000727624
0.000729015
0.000729974
0.000730514
0.000730649
0.000730393
0.000729758
0.000728758
0.000727402
0.0007257
0.000723658
0.000721281
0.000718575
0.000715547
0.000712215
0.0007086
0.00070473
0.000700635
0.000696342
0.00069188
0.000687271
0.000682538
0.000677702
0.000672778
0.000667784
0.000662733
0.000657637
0.00065251
0.00064736
0.000642198
0.000637032
0.000631871
0.00062673
0.000621608
0.000616509
0.000611437
0.000606395
0.000601387
0.000596417
0.000591488
0.000586602
0.000581761
0.000576966
0.000572221
0.000567524
0.000562878
0.000558284
0.00055374
0.000549247
0.000544807
0.000540421
0.000536089
0.000531809
0.000527582
0.000523408
0.000519285
0.000515215
0.000511196
0.000507228
0.000503312
0.000499446
0.00049563
0.000491864
0.000488146
0.000484477
0.000480855
0.00047728
0.000473749
0.000470263
0.000466821
0.000463422
0.000460067
0.000456755
0.000453487
0.000450262
0.00044708
0.000443939
0.000440838
0.000437776
0.000434749
0.000431758
0.000428802
0.000425877
0.000422982
0.000420115
0.000417277
0.000414468
0.000411687
0.000408939
0.000406213
0.000403534
0.000400876
0.000398234
0.000395635
0.000393053
0.000390511
0.000387979
0.000385476
0.000382972
0.000380496
0.000378039
0.000375579
0.000373145
0.000370732
0.000368314
0.000365923
0.00036353
0.000361164
0.000358791
0.00035644
0.000354092
0.000351718
0.000349357
0.000346992
0.000344601
0.000342177
0.000339737
0.00033725
0.000334679
0.000331987
0.000329201
0.000326199
0.000322878
0.000319533
0.000314732
0.000306014
5.32238e-06
2.95007e-05
7.32557e-05
0.000117538
0.000156246
0.000189227
0.00021774
0.000242688
0.000265111
0.000285809
0.000305357
0.000324136
0.000342496
0.00036053
0.000378295
0.000395832
0.000413154
0.000430256
0.000447122
0.000463736
0.000480079
0.000496134
0.000511893
0.000527343
0.000542472
0.000557272
0.000571734
0.000585852
0.000599619
0.000613027
0.000626074
0.000638762
0.00065109
0.000663048
0.000674631
0.000685832
0.000696641
0.000707047
0.000717039
0.000726602
0.000735725
0.000744395
0.0007526
0.000760328
0.000767569
0.000774316
0.00078056
0.000786298
0.000791526
0.000796244
0.000800461
0.000804177
0.000807385
0.000810094
0.00081231
0.00081404
0.000815288
0.000816076
0.000816419
0.000816333
0.000815834
0.000814937
0.000813657
0.000812008
0.000810004
0.000807657
0.00080498
0.000801989
0.000798701
0.000795138
0.000791322
0.000787279
0.000783033
0.000778609
0.000774029
0.000769315
0.000764487
0.000759561
0.000754554
0.000749481
0.000744356
0.000739191
0.000733997
0.000728784
0.00072356
0.000718331
0.00071311
0.000707903
0.000702716
0.000697553
0.00069242
0.00068732
0.000682256
0.000677233
0.000672251
0.000667314
0.000662424
0.000657582
0.000652789
0.000648047
0.000643356
0.000638717
0.000634136
0.00062961
0.000625137
0.000620717
0.000616349
0.000612034
0.00060777
0.000603557
0.000599395
0.000595283
0.000591222
0.00058721
0.000583247
0.000579332
0.000575465
0.000571644
0.00056787
0.000564143
0.000560461
0.000556823
0.000553228
0.000549676
0.000546166
0.000542697
0.00053927
0.000535883
0.000532536
0.00052923
0.000525961
0.000522731
0.000519535
0.000516375
0.000513248
0.000510153
0.000507089
0.000504053
0.000501045
0.000498064
0.000495108
0.000492179
0.000489276
0.000486398
0.000483552
0.000480729
0.000477926
0.000475151
0.000472396
0.000469668
0.000466956
0.000464265
0.000461581
0.000458915
0.000456263
0.000453615
0.000450983
0.000448364
0.000445747
0.000443145
0.000440544
0.000437957
0.000435368
0.000432788
0.000430207
0.000427609
0.000425006
0.000422391
0.000419749
0.000417069
0.000414354
0.000411581
0.00040872
0.000405733
0.00040261
0.000399268
0.000395586
0.00039167
0.000386462
0.000377895
5.71007e-06
2.90479e-05
7.44461e-05
0.000122841
0.000166655
0.000204755
0.000238055
0.000267462
0.000293812
0.000317908
0.000340362
0.000361617
0.000381971
0.000401688
0.000420899
0.000439667
0.000458035
0.000476027
0.000493657
0.000510933
0.000527858
0.000544436
0.000560686
0.000576592
0.000592152
0.000607366
0.000622238
0.000636772
0.00065097
0.00066484
0.000678382
0.000691596
0.000704479
0.000717025
0.000729224
0.000741067
0.000752541
0.000763632
0.000774325
0.000784602
0.000794447
0.000803843
0.000812773
0.000821223
0.000829177
0.000836625
0.000843554
0.000849958
0.000855829
0.000861166
0.000865967
0.000870234
0.000873972
0.000877188
0.000879881
0.000882052
0.00088369
0.000884835
0.000885502
0.000885709
0.000885472
0.000884812
0.000883745
0.000882289
0.000880464
0.000878285
0.000875772
0.000872943
0.000869818
0.000866419
0.000862767
0.000858886
0.000854799
0.000850529
0.000846096
0.000841522
0.000836825
0.000832024
0.000827135
0.000822174
0.000817153
0.000812086
0.000806985
0.000801859
0.000796719
0.000791572
0.000786427
0.000781291
0.000776171
0.000771073
0.000766001
0.000760959
0.000755951
0.000750981
0.000746051
0.000741163
0.00073632
0.000731523
0.000726774
0.000722073
0.000717421
0.000712816
0.000708264
0.000703763
0.000699316
0.00069492
0.000690575
0.000686282
0.000682039
0.000677846
0.000673703
0.000669608
0.000665562
0.000661564
0.000657613
0.000653708
0.000649848
0.000646036
0.00064227
0.000638549
0.00063487
0.000631233
0.000627636
0.000624079
0.000620562
0.000617082
0.000613641
0.000610236
0.000606868
0.000603537
0.00060024
0.000596976
0.000593745
0.000590545
0.000587375
0.000584235
0.000581123
0.000578037
0.000574975
0.000571937
0.000568922
0.000565929
0.000562959
0.00056001
0.000557085
0.000554181
0.000551295
0.000548429
0.000545582
0.000542753
0.00053994
0.000537141
0.000534352
0.000531574
0.000528806
0.000526044
0.00052329
0.000520544
0.0005178
0.000515063
0.000512327
0.000509596
0.000506862
0.000504129
0.00050139
0.000498636
0.000495868
0.00049308
0.000490262
0.000487403
0.000484496
0.000481523
0.000478456
0.000475262
0.000471911
0.000468337
0.000464437
0.000460198
0.000454827
0.000446613
6.01823e-06
2.83118e-05
7.43416e-05
0.000125575
0.000173357
0.000215759
0.000253103
0.00028634
0.000316105
0.00034316
0.000368122
0.000391472
0.000413565
0.000434654
0.000454926
0.000474524
0.000493538
0.000512028
0.000530034
0.000547586
0.000564707
0.000581416
0.000597737
0.000613693
0.000629303
0.000644584
0.000659553
0.000674223
0.000688605
0.000702707
0.000716533
0.000730083
0.000743353
0.000756338
0.000769027
0.000781406
0.000793459
0.000805169
0.000816513
0.000827472
0.000838022
0.000848141
0.000857808
0.000867001
0.000875701
0.00088389
0.000891554
0.00089868
0.000905257
0.00091128
0.000916743
0.000921645
0.000925997
0.000929806
0.000933076
0.000935789
0.000937923
0.000939524
0.000940617
0.00094122
0.000941353
0.000941037
0.000940293
0.000939141
0.000937603
0.0009357
0.000933453
0.000930884
0.000928015
0.000924869
0.000921467
0.000917832
0.000913988
0.000909955
0.000905755
0.000901408
0.000896934
0.000892349
0.000887671
0.000882915
0.000878095
0.000873224
0.000868314
0.000863375
0.000858418
0.000853451
0.000848483
0.00084352
0.00083857
0.000833638
0.000828729
0.000823848
0.000818997
0.000814182
0.000809405
0.000804667
0.000799972
0.00079532
0.000790713
0.000786153
0.000781639
0.000777172
0.000772753
0.000768384
0.000764063
0.000759792
0.000755569
0.000751395
0.000747268
0.000743189
0.000739156
0.00073517
0.000731229
0.000727333
0.00072348
0.000719671
0.000715901
0.000712174
0.00070849
0.000704847
0.000701244
0.000697679
0.000694152
0.000690662
0.000687208
0.000683789
0.000680403
0.000677052
0.000673733
0.000670446
0.000667189
0.000663963
0.000660765
0.000657595
0.000654453
0.000651335
0.000648242
0.000645172
0.000642122
0.000639093
0.000636082
0.00063309
0.000630116
0.000627159
0.00062422
0.000621297
0.000618389
0.000615496
0.000612616
0.00060975
0.000606895
0.00060405
0.000601213
0.000598383
0.000595558
0.000592737
0.00058992
0.000587105
0.000584291
0.000581478
0.000578663
0.000575846
0.000573024
0.000570196
0.000567358
0.000564503
0.000561628
0.000558728
0.000555793
0.000552814
0.00054978
0.000546673
0.00054347
0.000540138
0.000536641
0.000532923
0.000528894
0.000524481
0.000519124
0.000511338
6.25352e-06
2.74524e-05
7.33467e-05
0.000126283
0.000176904
0.000222618
0.000263244
0.000299576
0.000332161
0.000361654
0.000388662
0.000413675
0.00043708
0.000459174
0.000480184
0.000500275
0.000519577
0.000538189
0.000556189
0.000573642
0.000590603
0.000607123
0.000623242
0.000639
0.000654432
0.000669569
0.000684439
0.000699065
0.000713465
0.000727652
0.000741635
0.000755414
0.000768987
0.000782346
0.000795478
0.000808366
0.000820988
0.000833321
0.000845338
0.00085701
0.00086831
0.000879206
0.000889671
0.000899677
0.000909198
0.000918209
0.000926691
0.000934626
0.000941998
0.000948797
0.000955015
0.000960647
0.000965709
0.000970212
0.000974157
0.000977502
0.00098023
0.000982376
0.000983984
0.000985073
0.000985666
0.000985783
0.00098545
0.000984689
0.000983524
0.000981979
0.000980078
0.000977845
0.000975305
0.00097248
0.000969394
0.000966071
0.000962533
0.000958802
0.000954899
0.000950844
0.000946657
0.000942355
0.000937956
0.000933474
0.000928924
0.000924319
0.000919671
0.000914992
0.00091029
0.000905576
0.000900858
0.000896142
0.000891436
0.000886744
0.000882073
0.000877427
0.000872809
0.000868223
0.000863673
0.000859159
0.000854685
0.000850252
0.000845861
0.000841513
0.00083721
0.000832951
0.000828736
0.000824568
0.000820445
0.000816367
0.000812336
0.000808348
0.000804406
0.000800507
0.000796651
0.000792838
0.000789067
0.000785337
0.000781647
0.000777995
0.000774382
0.000770806
0.000767268
0.000763766
0.0007603
0.000756869
0.000753471
0.000750106
0.000746772
0.000743469
0.000740195
0.000736951
0.000733734
0.000730545
0.000727382
0.000724245
0.000721129
0.000718038
0.000714969
0.000711922
0.000708895
0.000705887
0.000702895
0.00069992
0.00069696
0.000694014
0.000691082
0.000688163
0.000685256
0.000682361
0.000679477
0.000676603
0.000673737
0.000670879
0.000668028
0.000665183
0.000662342
0.000659504
0.000656667
0.000653831
0.000650994
0.000648156
0.000645314
0.000642469
0.000639618
0.00063676
0.000633894
0.000631016
0.000628123
0.000625211
0.000622274
0.000619307
0.000616303
0.000613251
0.000610139
0.000606951
0.000603665
0.00060025
0.000596671
0.000592876
0.000588786
0.000584305
0.000579013
0.000571712
6.42045e-06
2.65415e-05
7.17341e-05
0.000125398
0.000177793
0.000225824
0.000268929
0.00030758
0.0003423
0.00037364
0.00040217
0.000428377
0.000452661
0.000475347
0.000496695
0.00051691
0.000536158
0.000554576
0.000572277
0.000589357
0.0006059
0.00062198
0.000637665
0.000653012
0.000668074
0.000682899
0.000697525
0.000711986
0.000726306
0.000740504
0.00075459
0.000768567
0.000782431
0.000796171
0.000809771
0.000823208
0.000836453
0.000849476
0.000862243
0.000874717
0.00088686
0.000898634
0.000910002
0.000920928
0.000931378
0.000941322
0.000950732
0.000959583
0.000967857
0.000975537
0.000982614
0.000989081
0.000994952
0.00100026
0.00100497
0.00100903
0.00101245
0.00101522
0.00101742
0.00101907
0.0010202
0.00102082
0.00102097
0.00102067
0.00101994
0.00101882
0.00101733
0.00101549
0.00101333
0.00101088
0.00100817
0.0010052
0.00100202
0.000998641
0.000995083
0.000991368
0.000987517
0.000983547
0.000979475
0.000975317
0.000971088
0.0009668
0.000962467
0.000958099
0.000953706
0.000949298
0.000944883
0.000940467
0.000936059
0.000931662
0.000927284
0.000922927
0.000918596
0.000914295
0.000910025
0.00090579
0.000901592
0.000897431
0.00089331
0.000889229
0.000885188
0.000881189
0.000877232
0.000873316
0.000869442
0.000865611
0.00086182
0.000858071
0.000854362
0.000850693