/*--------------------------------*- C++ -*----------------------------------*\
| =========                 |                                                 |
| \\      /  F ield         | OpenFOAM: The Open Source CFD Toolbox           |
|  \\    /   O peration     | Version:  2112                                  |
|   \\  /    A nd           | Website:  www.openfoam.com                      |
|    \\/     M anipulation  |                                                 |
\*---------------------------------------------------------------------------*/
FoamFile
{
    version     2.0;
    format      ascii;
    arch        "LSB;label=32;scalar=64";
    class       volScalarField;
    location    "100";
    object      p;
}
// * * * * * * * * * * * * * * * * * * * * * * * * * * * * * * * * * * * * * //

dimensions      [0 2 -2 0 0 0 0];

internalField   nonuniform List<scalar> 
12225
(
-0.0437687
-0.0310863
-0.00864985
0.00822415
0.0197097
0.0274416
0.0325864
0.0358811
0.037833
0.0387813
0.0389448
0.0384529
0.0373578
0.0356265
0.0330988
0.0293593
0.0234233
0.0126406
-0.083576
-0.0357956
-0.0117096
0.00563649
0.0175316
0.0255951
0.0310125
0.0345245
0.0366481
0.0377309
0.0379977
0.0375813
0.0365364
0.0348304
0.0323091
0.0285846
0.0228971
0.0130659
-0.113409
-0.0435481
-0.0176669
0.000723784
0.0133556
0.0219984
0.0278965
0.0317974
0.0342337
0.0355655
0.0360272
0.0357593
0.0348229
0.0331936
0.0307474
0.0271898
0.0221777
0.0151855
-0.123846
-0.0509676
-0.0240847
-0.00464107
0.00867559
0.0178585
0.0242195
0.0285106
0.031273
0.0328747
0.0335579
0.0334713
0.0326877
0.0312043
0.0289526
0.0257806
0.0217022
0.0170104
-0.122554
-0.0566037
-0.0293387
-0.00927291
0.00448461
0.0140461
0.0207497
0.0253469
0.0283788
0.0302154
0.0311036
0.031201
0.0305964
0.029319
0.0273666
0.0247252
0.0216186
0.0185137
-0.114754
-0.0600016
-0.033086
-0.0129653
0.000964381
0.0107453
0.0176767
0.0224973
0.0257404
0.0277735
0.0288465
0.0291262
0.0287194
0.0276902
0.0260969
0.0240261
0.0217953
0.0197987
-0.102838
-0.0608687
-0.0352739
-0.0156862
-0.00186894
0.00797169
0.0150237
0.0199934
0.0233962
0.0255928
0.0268336
0.027294
0.0270984
0.0263425
0.0251302
0.0236085
0.0221145
0.0209026
-0.088419
-0.0590911
-0.0358546
-0.0173593
-0.00396389
0.00575912
0.0128189
0.0178614
0.0213727
0.0237003
0.025092
0.0257293
0.0257515
0.0252784
0.0244434
0.0234206
0.0225224
0.021858
-0.0727358
-0.0548161
-0.0348143
-0.0179079
-0.00525641
0.00415325
0.0110974
0.0161311
0.0196967
0.0221208
0.0236444
0.0244509
0.0246895
0.0244954
0.0240159
0.0234286
0.0229984
0.0227126
-0.056637
-0.0484122
-0.0322074
-0.0172958
-0.00569866
0.00319208
0.009889
0.0148272
0.0183899
0.020874
0.0225071
0.0234702
0.023916
0.0239858
0.0238284
0.0236096
0.0235405
0.0235148
-0.0406043
-0.0403733
-0.0281982
-0.0155589
-0.00528278
0.00289101
0.00920959
0.0139646
0.0174657
0.0199712
0.021689
0.0227915
0.0234283
0.023739
0.0238641
0.0239495
0.0241571
0.0243095
-0.0261836
-0.0319608
-0.0234849
-0.0130525
-0.00416247
0.00319784
0.00905981
0.0135714
0.0169642
0.019454
0.0212247
0.0224353
0.0232271
0.0237312
0.0240761
0.024387
0.024791
0.0250509
-0.0128457
-0.0227842
-0.0180228
-0.00979203
-0.00236418
0.00405489
0.00936092
0.0135595
0.0167941
0.0192324
0.0210296
0.0223258
0.0232491
0.0239187
0.0244465
0.0249381
0.0254775
0.0258463
0.00120458
-0.0118765
-0.0111212
-0.00534047
0.0004118
0.00565936
0.0102345
0.0140049
0.0170062
0.0193461
0.0211422
0.0225092
0.023555
0.0243802
0.0250781
0.0257307
0.0263854
0.0268667
0.0155572
0.000249414
-0.00288329
0.00030261
0.00425694
0.0081604
0.01184
0.015062
0.0177476
0.0199328
0.021691
0.023102
0.0242481
0.0252061
0.0260484
0.0268336
0.0275838
0.0281697
0.0293745
0.0126602
0.00616291
0.00682422
0.00902049
0.0115494
0.0142479
0.0168403
0.0191461
0.0211273
0.0228065
0.0242279
0.0254411
0.0264994
0.0274503
0.0283352
0.0291595
0.0298405
0.0412306
0.0238191
0.0148273
0.0133686
0.0140899
0.0154438
0.017255
0.0192552
0.0211955
0.0229699
0.0245575
0.0259675
0.0272222
0.0283497
0.0293796
0.0303358
0.0312242
0.0320045
0.0484766
0.0311809
0.0209685
0.0182869
0.0181871
0.0188904
0.0201859
0.0218369
0.0235685
0.0252327
0.0267794
0.0281961
0.0294869
0.0306635
0.0317427
0.0327389
0.0336643
0.0345172
0.0465434
0.030303
0.0207523
0.0185926
0.0190196
0.0201805
0.0218475
0.0238119
0.0258147
0.0277126
0.0294601
0.0310491
0.0324872
0.0337882
0.0349711
0.0360539
0.0370656
0.0380512
0.0370039
0.0207981
0.0132077
0.0131838
0.0152545
0.0177362
0.0204705
0.0232517
0.0258684
0.0282311
0.0303339
0.0321923
0.0338337
0.0352838
0.0365719
0.0377208
0.0387687
0.0397759
0.020226
0.00620516
0.00252789
0.00584599
0.0103651
0.0147411
0.0189076
0.0227168
0.026058
0.0289366
0.0314043
0.0335214
0.0353417
0.0369168
0.0382878
0.0394932
0.0405753
0.0416175
-0.0011296
-0.0107612
-0.00887405
-0.00151978
0.00579235
0.012208
0.0178003
0.0225583
0.026527
0.0298204
0.0325595
0.0348486
0.036774
0.0384072
0.0398046
0.0410125
0.0420786
0.0430857
-0.0253647
-0.0276558
-0.0188626
-0.00729731
0.00272386
0.010962
0.0177116
0.0231799
0.0275845
0.0311414
0.0340324
0.0363999
0.0383571
0.0399905
0.0413695
0.0425448
0.043568
0.0445191
-0.0511284
-0.0421964
-0.0258543
-0.0105347
0.00170953
0.0112938
0.0188025
0.0246867
0.0293114
0.0329706
0.0358905
0.0382424
0.0401563
0.0417314
0.0430424
0.0441468
0.0450931
0.0459589
-0.0767001
-0.0522359
-0.0289651
-0.0109367
0.00279367
0.0131515
0.0210152
0.0270379
0.0316842
0.0352983
0.0381358
0.0403859
0.0421892
0.0436513
0.0448512
0.0458485
0.0466898
0.0474465
-0.0996243
-0.0562205
-0.0280659
-0.00866957
0.00575264
0.0163503
0.0242209
0.030145
0.0346412
0.0380815
0.0407383
0.0428098
0.0444416
0.0457419
0.046791
0.0476489
0.0483599
0.0489855
-0.115479
-0.0537333
-0.0234546
-0.00397795
0.0103738
0.0207515
0.0283323
0.0339452
0.0381322
0.0412776
0.0436592
0.0454784
0.0468797
0.047971
0.0488312
0.0495189
0.0500756
0.0505512
-0.114831
-0.0455733
-0.0158464
0.00279606
0.0164002
0.0261515
0.0331655
0.03826
0.0419831
0.0447176
0.046737
0.0482369
0.0493571
0.0502004
0.0508418
0.0513365
0.0517229
0.0520419
-0.085274
-0.0346584
-0.00774305
0.0098642
0.0224149
0.0313468
0.037667
0.0421623
0.0453765
0.0476799
0.0493328
0.0505196
0.0513716
0.051984
0.0524257
0.0527477
0.0529851
0.0531773
-0.0383487
-0.0275255
-0.00335562
0.0137851
0.0257161
0.0341578
0.0400636
0.0442054
0.0471243
0.0491815
0.0506278
0.0516404
0.0523449
0.0528315
0.0531655
0.0533951
0.0535539
0.0536855
0.0168543
0.0168037
0.0166299
0.0163786
0.0160988
0.0158039
0.0154934
0.0151639
0.0148127
0.0144377
0.01404
0.0136216
0.0131883
0.0127473
0.0123108
0.0118916
0.0115076
0.011176
0.0109184
0.0107532
0.0107018
0.0107804
0.0110081
0.0113974
0.0119637
0.012714
0.0136554
0.0147834
0.016094
0.0175773
0.0192328
0.0210627
0.023075
0.0252611
0.0276059
0.0300915
0.032704
0.035428
0.0382504
0.0411568
0.0441341
0.0471685
0.0502467
0.0533559
0.0564829
0.059616
0.0627426
0.0658523
0.0689334
0.0719767
0.0749712
0.0779096
0.0807819
0.083583
0.0863041
0.0889422
0.09149
0.0939458
0.0963039
0.0985646
0.100723
0.102782
0.104737
0.106592
0.108345
0.11
0.111559
0.113024
0.114393
0.115668
0.116851
0.117945
0.118953
0.11988
0.120728
0.121502
0.122204
0.122839
0.123409
0.123918
0.12437
0.124767
0.125113
0.125411
0.125662
0.125871
0.126039
0.12617
0.126264
0.126327
0.126359
0.126361
0.126336
0.126285
0.12621
0.126113
0.125995
0.125858
0.125703
0.125531
0.125344
0.125142
0.124928
0.1247
0.124462
0.124212
0.123953
0.123686
0.12341
0.123127
0.122838
0.122542
0.12224
0.121934
0.121622
0.121307
0.120988
0.120666
0.12034
0.120012
0.119682
0.11935
0.119015
0.118679
0.118341
0.118003
0.117663
0.117323
0.116982
0.116641
0.1163
0.115959
0.115617
0.115275
0.114933
0.114592
0.114251
0.11391
0.113569
0.113229
0.11289
0.11255
0.11221
0.111872
0.111536
0.1112
0.110863
0.110527
0.110191
0.109856
0.109521
0.109187
0.108854
0.108522
0.10819
0.107859
0.107529
0.107199
0.10687
0.106542
0.106216
0.105891
0.105569
0.105249
0.104933
0.104619
0.104313
0.104013
0.103722
0.103444
0.103182
0.102943
0.102733
0.102565
0.102454
0.102425
0.102521
0.102773
0.103414
0.104016
0.0175543
0.0173906
0.0171409
0.0169115
0.016736
0.016579
0.0164023
0.0161824
0.0159093
0.01558
0.0151971
0.0147649
0.0142925
0.0137909
0.0132761
0.012765
0.0122795
0.0118403
0.0114719
0.011195
0.0110326
0.011002
0.0111212
0.0114025
0.011859
0.012497
0.013324
0.0143408
0.01555
0.0169489
0.0185357
0.0203011
0.0222327
0.0243175
0.0265484
0.028915
0.0314074
0.0340132
0.0367206
0.0395169
0.0423893
0.0453252
0.0483116
0.0513364
0.0543865
0.0574506
0.0605164
0.0635736
0.0666106
0.0696182
0.0725857
0.0755051
0.0783667
0.0811646
0.0838907
0.0865406
0.0891073
0.0915882
0.0939778
0.096275
0.0984758
0.10058
0.102586
0.104495
0.106304
0.108012
0.109617
0.111123
0.112533
0.113853
0.115083
0.116226
0.117285
0.118265
0.119165
0.119993
0.120748
0.121435
0.122058
0.122619
0.123122
0.123569
0.123964
0.124309
0.124607
0.124861
0.125073
0.125246
0.125382
0.125484
0.125554
0.125593
0.125603
0.125586
0.125544
0.125478
0.12539
0.125282
0.125154
0.125009
0.124847
0.12467
0.124479
0.124274
0.124056
0.123827
0.123588
0.123338
0.12308
0.122814
0.122541
0.12226
0.121973
0.12168
0.121382
0.121079
0.120772
0.120461
0.120147
0.119829
0.119509
0.119186
0.11886
0.118532
0.118203
0.117871
0.117539
0.117205
0.116871
0.116536
0.1162
0.115864
0.115528
0.115191
0.114854
0.114517
0.11418
0.113844
0.113507
0.113171
0.112835
0.112499
0.112163
0.111828
0.111493
0.111159
0.110825
0.110491
0.110158
0.109825
0.109492
0.10916
0.108829
0.108498
0.108168
0.107838
0.107509
0.107181
0.106853
0.106527
0.106202
0.105878
0.105557
0.105238
0.104922
0.104611
0.104305
0.104006
0.103716
0.10344
0.103179
0.102941
0.102733
0.102567
0.102458
0.102428
0.102523
0.102761
0.103367
0.103852
0.018969
0.0185853
0.0180287
0.0176237
0.0174135
0.017288
0.0171558
0.016968
0.0167036
0.0163568
0.015934
0.0154468
0.0149115
0.0143452
0.0137684
0.013201
0.0126657
0.0121827
0.011774
0.0114581
0.0112542
0.0111771
0.0112422
0.0114594
0.0118392
0.0123869
0.0131082
0.0140045
0.0150793
0.0163322
0.0177634
0.0193669
0.0211351
0.0230575
0.0251255
0.0273293
0.0296592
0.0321047
0.0346546
0.0372977
0.0400223
0.0428165
0.0456684
0.0485662
0.0514978
0.054452
0.0574172
0.0603829
0.0633381
0.0662735
0.0691788
0.0720456
0.074865
0.0776301
0.0803331
0.0829686
0.0855302
0.0880137
0.0904144
0.0927296
0.0949562
0.0970931
0.0991389
0.101094
0.102956
0.104727
0.106405
0.107993
0.10949
0.1109
0.112222
0.113459
0.114612
0.115684
0.116677
0.117595
0.11844
0.119216
0.119924
0.12057
0.121154
0.12168
0.122152
0.122572
0.122942
0.123265
0.123545
0.123782
0.123981
0.124143
0.124271
0.124366
0.124429
0.124463
0.12447
0.124452
0.124409
0.124345
0.124259
0.124154
0.124031
0.12389
0.123734
0.123562
0.123377
0.12318
0.12297
0.122749
0.122519
0.122279
0.12203
0.121773
0.12151
0.121239
0.120962
0.120679
0.120391
0.120098
0.119801
0.119501
0.119196
0.118888
0.118577
0.118264
0.117947
0.117629
0.117309
0.116987
0.116664
0.11634
0.116014
0.115688
0.115361
0.115033
0.114704
0.114375
0.114046
0.113716
0.113387
0.113057
0.112727
0.112397
0.112068
0.111738
0.111408
0.111079
0.110749
0.11042
0.110091
0.109761
0.109433
0.109104
0.108776
0.108449
0.108121
0.107795
0.107468
0.107143
0.106818
0.106494
0.106171
0.10585
0.10553
0.105213
0.1049
0.10459
0.104286
0.103989
0.103702
0.103427
0.103169
0.102933
0.102727
0.102561
0.102452
0.102418
0.102501
0.1027
0.103217
0.103525
0.0205414
0.0199412
0.018981
0.018219
0.0177633
0.0174744
0.0172355
0.0169787
0.0166679
0.0162864
0.015834
0.0153193
0.0147582
0.0141678
0.0135688
0.0129809
0.0124259
0.0119231
0.0114932
0.0111531
0.0109209
0.0108104
0.0108359
0.0110071
0.0113342
0.0118223
0.0124775
0.013301
0.0142955
0.0154599
0.0167935
0.0182914
0.0199481
0.0217558
0.0237073
0.0257939
0.0280068
0.0303365
0.0327729
0.0353054
0.0379232
0.0406153
0.0433701
0.0461766
0.0490232
0.0518989
0.0547926
0.0576938
0.0605917
0.0634767
0.066339
0.0691701
0.071961
0.0747047
0.0773933
0.0800209
0.0825809
0.0850688
0.0874796
0.0898103
0.0920578
0.0942204
0.0962962
0.0982842
0.100183
0.101993
0.103715
0.105349
0.106896
0.108358
0.109735
0.11103
0.112243
0.113376
0.114432
0.115414
0.116322
0.117161
0.117934
0.118642
0.119288
0.119877
0.120409
0.120888
0.121317
0.121697
0.122033
0.122325
0.122576
0.12279
0.122968
0.123111
0.123222
0.123302
0.123354
0.123378
0.123377
0.123353
0.123306
0.123239
0.123152
0.123047
0.122924
0.122786
0.122632
0.122465
0.122285
0.122093
0.121889
0.121676
0.121453
0.121221
0.12098
0.120732
0.120477
0.120215
0.119948
0.119675
0.119396
0.119114
0.118826
0.118535
0.11824
0.117942
0.11764
0.117337
0.11703
0.116722
0.116411
0.116099
0.115785
0.11547
0.115153
0.114835
0.114516
0.114197
0.113876
0.113555
0.113234
0.112912
0.11259
0.112267
0.111945
0.111622
0.111298
0.110974
0.11065
0.110326
0.110002
0.109678
0.109354
0.10903
0.108707
0.108383
0.108059
0.107736
0.107413
0.107091
0.106769
0.106448
0.106128
0.10581
0.105493
0.105179
0.104867
0.10456
0.104258
0.103963
0.103678
0.103404
0.103147
0.102912
0.102705
0.102537
0.102422
0.102375
0.102431
0.102574
0.102968
0.103097
0.0215863
0.0208322
0.0195369
0.0184037
0.0176447
0.0171233
0.0167078
0.0163211
0.0159174
0.0154715
0.0149759
0.0144336
0.0138571
0.0132614
0.0126653
0.0120865
0.011545
0.0110582
0.0106449
0.0103204
0.0101007
0.00999818
0.0100258
0.0101924
0.0105074
0.010976
0.0116039
0.012393
0.0133458
0.0144613
0.0157386
0.0171739
0.0187635
0.0205007
0.0223796
0.0243924
0.0265312
0.028787
0.0311504
0.0336116
0.0361603
0.0387859
0.0414774
0.0442242
0.047015
0.0498392
0.0526858
0.0555447
0.0584051
0.0612575
0.0640919
0.0668998
0.0696726
0.0724028
0.0750827
0.0777061
0.0802665
0.0827592
0.0851795
0.0875241
0.0897893
0.0919727
0.0940717
0.0960848
0.0980105
0.0998486
0.101599
0.103263
0.104842
0.106336
0.107748
0.109079
0.11033
0.111503
0.1126
0.113624
0.114575
0.115458
0.116275
0.117027
0.117718
0.118351
0.118927
0.11945
0.119922
0.120346
0.120723
0.121057
0.121349
0.121603
0.12182
0.122001
0.12215
0.122266
0.122353
0.122413
0.122446
0.122454
0.12244
0.122403
0.122347
0.122271
0.122177
0.122066
0.121939
0.121798
0.121643
0.121476
0.121296
0.121106
0.120905
0.120694
0.120475
0.120247
0.120011
0.119768
0.119519
0.119263
0.119002
0.118736
0.118464
0.118188
0.117908
0.117624
0.117336
0.117045
0.116752
0.116456
0.116157
0.115856
0.115553
0.115248
0.114942
0.114634
0.114324
0.114014
0.113702
0.113389
0.113076
0.112761
0.112446
0.112131
0.111815
0.111498
0.111181
0.110863
0.110545
0.110226
0.109908
0.109589
0.109269
0.10895
0.10863
0.108311
0.107991
0.107672
0.107353
0.107033
0.106715
0.106397
0.10608
0.105764
0.10545
0.105138
0.104828
0.104523
0.104223
0.103929
0.103645
0.103372
0.103114
0.102877
0.102666
0.102491
0.102364
0.102294
0.102312
0.102388
0.102651
0.102616
0.0217256
0.0209093
0.0194414
0.018045
0.0170285
0.0162908
0.0157001
0.0151774
0.0146745
0.0141608
0.0136237
0.0130612
0.0124813
0.0118954
0.0113195
0.0107686
0.0102605
0.00981018
0.0094345
0.00914682
0.00896184
0.0088903
0.00894411
0.00913123
0.00946044
0.00993658
0.0105654
0.0113487
0.0122893
0.0133864
0.0146397
0.016046
0.0176022
0.0193028
0.0211426
0.0231142
0.0252106
0.0274232
0.0297433
0.0321615
0.0346677
0.037252
0.0399036
0.0426121
0.0453666
0.0481568
0.0509718
0.0538016
0.0566358
0.0594647
0.0622785
0.0650687
0.0678266
0.070545
0.0732163
0.0758343
0.0783927
0.0808869
0.0833118
0.0856638
0.0879389
0.0901347
0.0922482
0.094278
0.0962222
0.0980803
0.0998523
0.101539
0.103141
0.10466
0.106097
0.107454
0.108733
0.109935
0.111062
0.112116
0.1131
0.114015
0.114865
0.115651
0.116376
0.117043
0.117653
0.118211
0.118717
0.119174
0.119585
0.119952
0.120277
0.120563
0.120812
0.121025
0.121204
0.12135
0.121467
0.121555
0.121617
0.121653
0.121665
0.121655
0.121624
0.121573
0.121503
0.121416
0.121313
0.121194
0.121061
0.120915
0.120756
0.120585
0.120404
0.120212
0.120011
0.1198
0.119582
0.119356
0.119122
0.118883
0.118636
0.118384
0.118127
0.117865
0.117598
0.117326
0.117051
0.116772
0.11649
0.116205
0.115917
0.115627
0.115334
0.115038
0.114741
0.114442
0.114141
0.113839
0.113535
0.11323
0.112924
0.112616
0.112308
0.111999
0.11169
0.111379
0.111067
0.110755
0.110442
0.110129
0.109815
0.1095
0.109185
0.10887
0.108555
0.108239
0.107923
0.107607
0.107291
0.106975
0.10666
0.106345
0.10603
0.105717
0.105405
0.105094
0.104787
0.104483
0.104184
0.103891
0.103606
0.103332
0.103072
0.10283
0.102613
0.102426
0.102281
0.102184
0.102154
0.102159
0.102298
0.102124
0.0209123
0.0201143
0.0186242
0.0171033
0.0159177
0.01502
0.0142924
0.0136595
0.0130753
0.0125081
0.011942
0.0113713
0.0108002
0.0102363
0.00969253
0.00918145
0.00871842
0.00831639
0.00799043
0.00775226
0.00761516
0.00758886
0.00768432
0.00790868
0.00827025
0.00877356
0.00942406
0.0102237
0.0111753
0.0122783
0.0135328
0.0149361
0.0164856
0.0181762
0.0200031
0.0219597
0.0240392
0.0262333
0.0285339
0.0309316
0.0334169
0.0359799
0.0386104
0.0412979
0.0440319
0.046802
0.0495977
0.052409
0.0552256
0.0580381
0.0608367
0.0636132
0.066359
0.0690672
0.0717303
0.0743423
0.0768966
0.0793883
0.0818125
0.0841654
0.0864432
0.0886434
0.090763
0.0928005
0.0947543
0.0966237
0.0984084
0.100109
0.101726
0.103262
0.104716
0.106092
0.10739
0.108612
0.109761
0.110837
0.111844
0.112784
0.113658
0.114469
0.11522
0.115913
0.11655
0.117134
0.117667
0.118152
0.11859
0.118983
0.119335
0.119647
0.119922
0.120161
0.120365
0.120537
0.120679
0.120791
0.120877
0.120936
0.120972
0.120984
0.120975
0.120946
0.120897
0.12083
0.120747
0.120648
0.120534
0.120406
0.120265
0.120112
0.119948
0.119773
0.119588
0.119393
0.11919
0.118978
0.118759
0.118533
0.118301
0.118062
0.117817
0.117567
0.117312
0.117052
0.116788
0.11652
0.116248
0.115973
0.115695
0.115414
0.11513
0.114843
0.114555
0.114263
0.11397
0.113676
0.113379
0.113081
0.112781
0.112481
0.112179
0.111876
0.111572
0.111266
0.11096
0.110653
0.110345
0.110036
0.109727
0.109416
0.109106
0.108794
0.108483
0.10817
0.107858
0.107545
0.107232
0.106919
0.106606
0.106294
0.105981
0.10567
0.10536
0.105051
0.104745
0.104442
0.104143
0.103849
0.103563
0.103287
0.103023
0.102775
0.102548
0.102348
0.102181
0.102051
0.101972
0.101906
0.101933
0.101643
0.0192756
0.0185482
0.0171448
0.0156276
0.0143755
0.0133909
0.0125812
0.0118789
0.0112428
0.0106436
0.0100648
0.00949847
0.0089464
0.00841338
0.00790982
0.00744571
0.00703454
0.00668747
0.006418
0.00623652
0.00615531
0.00618303
0.00632989
0.00660254
0.00700874
0.00755273
0.00823984
0.00907197
0.0100519
0.0111793
0.0124545
0.0138748
0.0154378
0.017139
0.0189738
0.0209356
0.0230179
0.025213
0.0275125
0.0299075
0.0323887
0.0349463
0.0375701
0.0402499
0.0429753
0.045736
0.0485216
0.0513223
0.0541279
0.0569291
0.0597168
0.0624829
0.065219
0.0679183
0.0705733
0.0731778
0.0757253
0.0782113
0.0806305
0.0829794
0.0852542
0.0874525
0.0895715
0.0916098
0.0935657
0.0954387
0.0972286
0.0989356
0.100561
0.102105
0.103569
0.104956
0.106265
0.107501
0.108663
0.109755
0.110778
0.111734
0.112626
0.113456
0.114226
0.114938
0.115595
0.1162
0.116754
0.117259
0.117719
0.118134
0.118507
0.11884
0.119137
0.119397
0.119622
0.119815
0.119978
0.120111
0.120216
0.120296
0.120351
0.120383
0.120392
0.120382
0.120351
0.120302
0.120237
0.120154
0.120057
0.119946
0.119821
0.119683
0.119534
0.119374
0.119203
0.119022
0.118833
0.118635
0.118428
0.118215
0.117994
0.117767
0.117534
0.117295
0.11705
0.116801
0.116547
0.116288
0.116026
0.11576
0.115491
0.115218
0.114942
0.114664
0.114382
0.114099
0.113813
0.113525
0.113235
0.112943
0.11265
0.112355
0.112059
0.111761
0.111462
0.111162
0.11086
0.110558
0.110254
0.10995
0.109644
0.109338
0.109031
0.108723
0.108415
0.108106
0.107796
0.107487
0.107176
0.106866
0.106555
0.106245
0.105935
0.105625
0.105316
0.105009
0.104703
0.1044
0.104101
0.103807
0.103519
0.103239
0.10297
0.102714
0.102476
0.102259
0.102068
0.101904
0.101774
0.10164
0.101568
0.101183
0.0170146
0.0163872
0.0151401
0.0137263
0.0125018
0.0115048
0.0106703
0.00994305
0.00928851
0.00868133
0.00810697
0.00755715
0.00703261
0.00653641
0.00607734
0.00566357
0.00530707
0.00501752
0.00480737
0.00468589
0.00466442
0.00475095
0.00495513
0.00528296
0.00574198
0.00633617
0.00707063
0.00794718
0.00896854
0.0101343
0.0114448
0.0128973
0.0144897
0.0162173
0.0180756
0.0200582
0.0221588
0.0243694
0.026682
0.0290876
0.031577
0.0341404
0.0367678
0.0394492
0.0421739
0.0449321
0.0477135
0.0505085
0.0533071
0.0561005
0.0588795
0.0616362
0.0643627
0.0670522
0.0696972
0.0722919
0.0748297
0.0773061
0.0797161
0.0820564
0.0843232
0.0865142
0.0886269
0.09066
0.0926119
0.0944822
0.0962707
0.0979778
0.099604
0.101151
0.102619
0.10401
0.105325
0.106568
0.107738
0.108839
0.109872
0.110839
0.111743
0.112585
0.113369
0.114096
0.114768
0.115388
0.115957
0.116479
0.116955
0.117387
0.117778
0.118128
0.118442
0.11872
0.118963
0.119173
0.119353
0.119503
0.119626
0.119723
0.119795
0.119843
0.119869
0.119875
0.11986
0.119827
0.119776
0.119709
0.119627
0.11953
0.119419
0.119295
0.119159
0.119012
0.118854
0.118686
0.118508
0.118322
0.118127
0.117925
0.117715
0.117499
0.117275
0.117046
0.116811
0.116571
0.116326
0.116077
0.115823
0.115565
0.115304
0.115039
0.11477
0.114499
0.114225
0.113948
0.113668
0.113386
0.113103
0.112817
0.112529
0.112239
0.111948
0.111655
0.111361
0.111065
0.110768
0.11047
0.11017
0.10987
0.109568
0.109265
0.108962
0.108657
0.108352
0.108046
0.107739
0.107432
0.107124
0.106816
0.106507
0.106199
0.10589
0.105582
0.105274
0.104968
0.104663
0.10436
0.104059
0.103763
0.103472
0.103188
0.102913
0.102648
0.102397
0.102163
0.101946
0.101747
0.101568
0.101372
0.101212
0.10075
0.014347
0.0138331
0.0127818
0.0115404
0.0104184
0.00947348
0.00866606
0.00795479
0.00731307
0.00672088
0.00616692
0.00564425
0.00515389
0.00469832
0.00428558
0.00392278
0.00362099
0.00338889
0.00323808
0.00317706
0.00321668
0.00336422
0.00362888
0.0040164
0.00453387
0.005185
0.00597472
0.00690464
0.00797726
0.00919206
0.0105492
0.0120458
0.0136795
0.0154455
0.0173395
0.0193546
0.0214847
0.0237215
0.0260571
0.0284823
0.0309879
0.0335642
0.0362014
0.0388896
0.0416184
0.044378
0.0471581
0.0499495
0.0527425
0.0555282
0.0582978
0.061044
0.063759
0.0664362
0.0690683
0.0716496
0.0741737
0.0766361
0.0790323
0.0813589
0.0836125
0.085791
0.087892
0.0899143
0.0918565
0.0937185
0.0954999
0.0972012
0.0988229
0.100366
0.101832
0.103223
0.104539
0.105783
0.106956
0.108061
0.109099
0.110073
0.110984
0.111835
0.112627
0.113364
0.114047
0.114678
0.11526
0.115794
0.116284
0.116729
0.117133
0.117498
0.117826
0.118118
0.118376
0.118601
0.118795
0.11896
0.119098
0.119209
0.119295
0.119358
0.119398
0.119418
0.119417
0.119398
0.11936
0.119307
0.119237
0.119153
0.119055
0.118943
0.118819
0.118684
0.118537
0.11838
0.118214
0.118038
0.117854
0.117661
0.117461
0.117254
0.11704
0.11682
0.116594
0.116362
0.116125
0.115884
0.115637
0.115387
0.115133
0.114875
0.114613
0.114348
0.11408
0.11381
0.113536
0.11326
0.112981
0.112701
0.112418
0.112133
0.111847
0.111559
0.111269
0.110977
0.110684
0.110389
0.110093
0.109796
0.109498
0.109198
0.108898
0.108596
0.108294
0.10799
0.107686
0.107381
0.107076
0.106769
0.106463
0.106156
0.105849
0.105541
0.105235
0.104928
0.104623
0.104319
0.104018
0.10372
0.103425
0.103136
0.102854
0.102579
0.102315
0.102061
0.101819
0.101586
0.10136
0.101106
0.100869
0.100345
0.011483
0.0110852
0.0102481
0.009222
0.00825608
0.00741337
0.00667497
0.00601363
0.00541108
0.00485306
0.00433271
0.00384549
0.0033939
0.0029808
0.00261442
0.00230146
0.0020527
0.00187621
0.0017833
0.0017819
0.00188241
0.00209179
0.00241891
0.00286902
0.00344904
0.00416238
0.00501363
0.00600404
0.00713585
0.00840822
0.00982082
0.0113705
0.0130546
0.014868
0.0168058
0.0188612
0.0210277
0.0232971
0.0256612
0.0281111
0.0306372
0.0332301
0.0358799
0.0385767
0.0413106
0.0440718
0.0468504
0.0496372
0.0524226
0.0551983
0.0579559
0.0606881
0.0633878
0.0660486
0.0686633
0.0712263
0.0737316
0.0761749
0.0785518
0.0808593
0.0830943
0.0852546
0.0873383
0.0893443
0.0912714
0.0931195
0.0948884
0.0965786
0.0981907
0.0997259
0.101185
0.10257
0.103882
0.105124
0.106296
0.1074
0.108439
0.109415
0.11033
0.111185
0.111983
0.112726
0.113416
0.114056
0.114646
0.11519
0.115689
0.116145
0.11656
0.116937
0.117276
0.11758
0.11785
0.118087
0.118294
0.118472
0.118622
0.118746
0.118845
0.11892
0.118973
0.119004
0.119016
0.119009
0.118984
0.118942
0.118884
0.118811
0.118724
0.118623
0.11851
0.118385
0.118249
0.118102
0.117945
0.117779
0.117604
0.117421
0.11723
0.117031
0.116826
0.116613
0.116395
0.116171
0.115942
0.115707
0.115468
0.115225
0.114977
0.114725
0.11447
0.114211
0.113949
0.113683
0.113415
0.113144
0.112871
0.112595
0.112317
0.112036
0.111754
0.11147
0.111184
0.110896
0.110606
0.110315
0.110023
0.109729
0.109433
0.109137
0.108839
0.10854
0.10824
0.107939
0.107637
0.107334
0.107031
0.106726
0.106421
0.106115
0.105809
0.105503
0.105197
0.104891
0.104585
0.104281
0.103977
0.103676
0.103378
0.103083
0.102793
0.102508
0.10223
0.101957
0.10169
0.101423
0.101154
0.100848
0.100543
0.099969
0.00860899
0.0083256
0.00770798
0.00691979
0.00614363
0.00543801
0.00479944
0.00421309
0.00366928
0.00315988
0.00268281
0.00223686
0.0018268
0.00145673
0.00113574
0.000870788
0.000672894
0.000550011
0.00051333
0.000570503
0.000731861
0.00100387
0.00139519
0.00191077
0.00255714
0.00333721
0.00425511
0.00531159
0.00650841
0.00784424
0.00931834
0.0109271
0.0126672
0.0145333
0.0165199
0.01862
0.0208266
0.0231315
0.0255264
0.0280022
0.0305494
0.0331586
0.03582
0.0385239
0.0412605
0.0440203
0.0467937
0.0495716
0.0523449
0.0551056
0.0578456
0.0605585
0.0632371
0.0658754
0.0684665
0.071005
0.0734852
0.075903
0.0782544
0.0805366
0.0827468
0.0848831
0.0869437
0.0889277
0.0908342
0.0926631
0.0944142
0.0960883
0.0976859
0.0992081
0.100656
0.102031
0.103335
0.10457
0.105737
0.106837
0.107874
0.108849
0.109764
0.11062
0.111421
0.112167
0.112862
0.113507
0.114103
0.114654
0.115161
0.115625
0.116049
0.116434
0.116783
0.117097
0.117377
0.117625
0.117842
0.118031
0.118192
0.118327
0.118437
0.118523
0.118587
0.118629
0.118652
0.118655
0.118641
0.118609
0.118562
0.118499
0.118422
0.118332
0.118228
0.118113
0.117986
0.117848
0.1177
0.117543
0.117376
0.117201
0.117018
0.116828
0.11663
0.116425
0.116214
0.115997
0.115774
0.115547
0.115314
0.115076
0.114835
0.114589
0.114339
0.114085
0.113828
0.113568
0.113304
0.113038
0.112769
0.112498
0.112224
0.111948
0.111669
0.111389
0.111106
0.110822
0.110535
0.110247
0.109958
0.109667
0.109374
0.10908
0.108785
0.108489
0.108191
0.107892
0.107592
0.107291
0.106989
0.106686
0.106382
0.106078
0.105773
0.105467
0.105161
0.104855
0.104549
0.104243
0.103938
0.103634
0.103331
0.10303
0.102732
0.102437
0.102144
0.101852
0.10156
0.101262
0.100952
0.1006
0.100236
0.0996213
0.00588935
0.00571041
0.00530723
0.00476489
0.00419694
0.00364996
0.00313133
0.00263703
0.0021653
0.00171419
0.00128697
0.000886163
0.00051947
0.000192785
-8.33593e-05
-0.000301315
-0.000449473
-0.000519819
-0.000500928
-0.000385335
-0.000162818
0.000172915
0.000630312
0.00121386
0.00192974
0.0027803
0.00376899
0.00489599
0.00616245
0.00756633
0.00910614
0.0107776
0.0125771
0.0144984
0.0165357
0.0186816
0.0209288
0.0232686
0.0256927
0.0281919
0.0307569
0.0333782
0.0360463
0.0387517
0.0414848
0.0442365
0.0469974
0.0497589
0.0525123
0.05525
0.0579648
0.0606503
0.0632999
0.0659077
0.0684671
0.0709732
0.0734207
0.0758057
0.0781244
0.0803744
0.0825531
0.084659
0.0866904
0.0886466
0.0905268
0.0923311
0.0940594
0.0957125
0.0972909
0.0987958
0.100228
0.10159
0.102882
0.104106
0.105264
0.106358
0.107389
0.10836
0.109272
0.110127
0.110928
0.111675
0.112372
0.11302
0.113621
0.114176
0.114688
0.115159
0.115589
0.115982
0.116339
0.116661
0.116949
0.117206
0.117433
0.117631
0.117801
0.117946
0.118065
0.118161
0.118235
0.118287
0.118319
0.118332
0.118328
0.118306
0.118268
0.118214
0.118147
0.118065
0.117971
0.117864
0.117745
0.117616
0.117476
0.117327
0.117168
0.117001
0.116825
0.116641
0.11645
0.116252
0.116048
0.115837
0.115621
0.115399
0.115172
0.114941
0.114704
0.114464
0.114219
0.11397
0.113718
0.113462
0.113203
0.112941
0.112677
0.112409
0.112139
0.111866
0.111591
0.111314
0.111035
0.110754
0.11047
0.110185
0.109899
0.10961
0.10932
0.109029
0.108736
0.108441
0.108146
0.107849
0.10755
0.107251
0.106951
0.106649
0.106346
0.106043
0.105738
0.105433
0.105127
0.104821
0.104514
0.104206
0.103899
0.103592
0.103285
0.102978
0.102672
0.102365
0.102058
0.101748
0.101433
0.101105
0.100758
0.100364
0.0999493
0.0993013
0.00344533
0.00336341
0.00316472
0.0028655
0.00251199
0.00213453
0.00174742
0.00135536
0.000964149
0.000578023
0.000205527
-0.000146715
-0.000467753
-0.000749489
-0.000979718
-0.00114979
-0.00124734
-0.00126397
-0.00118809
-0.00101225
-0.000726211
-0.000323963
0.000202695
0.000857886
0.00164712
0.00257198
0.00363534
0.00483672
0.00617638
0.00765137
0.00925936
0.0109953
0.0128546
0.0148306
0.0169169
0.0191057
0.0213893
0.0237589
0.026206
0.0287215
0.0312963
0.033921
0.0365864
0.0392834
0.0420027
0.0447357
0.0474734
0.0502076
0.0529303
0.0556345
0.0583136
0.0609617
0.0635722
0.0661394
0.0686575
0.0711219
0.0735277
0.0758714
0.0781494
0.0803596
0.0824996
0.0845682
0.0865639
0.0884862
0.0903345
0.0921088
0.0938093
0.0954366
0.0969914
0.0984748
0.0998878
0.101232
0.102509
0.103719
0.104866
0.10595
0.106973
0.107937
0.108844
0.109696
0.110494
0.11124
0.111937
0.112586
0.113189
0.113748
0.114263
0.114739
0.115174
0.115573
0.115936
0.116265
0.116561
0.116825
0.11706
0.117266
0.117445
0.117597
0.117726
0.11783
0.117912
0.117974
0.118015
0.118037
0.118041
0.118027
0.117998
0.117953
0.117894
0.11782
0.117734
0.117635
0.117524
0.117403
0.117271
0.117128
0.116977
0.116816
0.116647
0.11647
0.116286
0.116094
0.115896
0.115691
0.115481
0.115264
0.115043
0.114816
0.114585
0.114349
0.114109
0.113865
0.113617
0.113366
0.113111
0.112853
0.112592
0.112328
0.112061
0.111792
0.11152
0.111246
0.11097
0.110691
0.110411
0.110128
0.109844
0.109558
0.10927
0.108981
0.10869
0.108398
0.108104
0.107809
0.107512
0.107214
0.106915
0.106615
0.106313
0.10601
0.105706
0.105401
0.105095
0.104788
0.10448
0.104172
0.103862
0.103551
0.103239
0.102927
0.102612
0.102295
0.101974
0.101646
0.101309
0.100953
0.100573
0.100143
0.0996827
0.099008
0.00135589
0.00137266