/*--------------------------------*- C++ -*----------------------------------*\
| =========                 |                                                 |
| \\      /  F ield         | OpenFOAM: The Open Source CFD Toolbox           |
|  \\    /   O peration     | Version:  2112                                  |
|   \\  /    A nd           | Website:  www.openfoam.com                      |
|    \\/     M anipulation  |                                                 |
\*---------------------------------------------------------------------------*/
FoamFile
{
    version     2.0;
    format      ascii;
    arch        "LSB;label=32;scalar=64";
    class       surfaceScalarField;
    location    "100";
    object      phi;
}
// * * * * * * * * * * * * * * * * * * * * * * * * * * * * * * * * * * * * * //

dimensions      [0 3 -1 0 0 0 0];

oriented        oriented;

internalField   nonuniform List<scalar> 
24170
(
1.96515e-08
-1.16972e-08
3.03123e-08
-1.06613e-08
3.88572e-08
-8.54512e-09
4.59551e-08
-7.09841e-09
5.1866e-08
-5.91119e-09
5.66521e-08
-4.78655e-09
6.05184e-08
-3.86644e-09
6.36627e-08
-3.14484e-09
6.62542e-08
-2.59172e-09
6.84338e-08
-2.18017e-09
7.03257e-08
-1.89228e-09
7.20486e-08
-1.72344e-09
7.37348e-08
-1.68674e-09
7.55607e-08
-1.82662e-09
7.78181e-08
-2.25811e-09
8.11115e-08
-3.29431e-09
8.66971e-08
-5.58682e-09
-1.48006e-08
1.01497e-07
4.02563e-08
-2.61084e-08
5.45669e-08
-2.49725e-08
6.6489e-08
-2.04677e-08
7.67904e-08
-1.74003e-08
8.55673e-08
-1.46886e-08
9.3027e-08
-1.22469e-08
9.93819e-08
-1.02218e-08
1.04833e-07
-8.59619e-09
1.09557e-07
-7.31716e-09
1.13713e-07
-6.336e-09
1.1744e-07
-5.62018e-09
1.20877e-07
-5.16111e-09
1.24172e-07
-4.98318e-09
1.27513e-07
-5.16842e-09
1.31167e-07
-5.91343e-09
1.35563e-07
-7.69257e-09
1.41526e-07
-1.15511e-08
-2.06139e-08
1.47338e-07
5.89003e-08
-3.79632e-08
7.37698e-08
-3.98421e-08
8.71916e-08
-3.38896e-08
9.87456e-08
-2.89545e-08
1.08679e-07
-2.46221e-08
1.17271e-07
-2.08387e-08
1.24731e-07
-1.76821e-08
1.3125e-07
-1.51149e-08
1.36997e-07
-1.3065e-08
1.42127e-07
-1.14658e-08
1.46779e-07
-1.02719e-08
1.51086e-07
-9.46924e-09
1.5519e-07
-9.08648e-09
1.59244e-07
-9.22302e-09
1.63431e-07
-1.01009e-08
1.67929e-07
-1.21912e-08
1.72698e-07
-1.63202e-08
-2.37938e-08
1.75878e-07
8.06765e-08
-4.66728e-08
9.43536e-08
-5.35195e-08
1.07943e-07
-4.74792e-08
1.19917e-07
-4.09291e-08
1.3035e-07
-3.50556e-08
1.39482e-07
-2.99708e-08
1.47502e-07
-2.5702e-08
1.54581e-07
-2.21949e-08
1.60879e-07
-1.93633e-08
1.6654e-07
-1.71269e-08
1.71697e-07
-1.5429e-08
1.76475e-07
-1.4248e-08
1.80997e-07
-1.36093e-08
1.85383e-07
-1.36093e-08
1.89732e-07
-1.44504e-08
1.94046e-07
-1.65054e-08
1.97998e-07
-2.02736e-08
-2.61113e-08
2.00316e-07
1.06563e-07
-5.21891e-08
1.18266e-07
-6.5222e-08
1.31104e-07
-6.03172e-08
1.42916e-07
-5.27409e-08
1.53426e-07
-4.55661e-08
1.62747e-07
-3.92916e-08
1.71018e-07
-3.39734e-08
1.78384e-07
-2.95601e-08
1.84982e-07
-2.59613e-08
1.90943e-07
-2.30886e-08
1.9639e-07
-2.08761e-08
2.01436e-07
-1.92934e-08
2.06182e-07
-1.83556e-08
2.10713e-07
-1.81403e-08
2.15064e-07
-1.88024e-08
2.19146e-07
-2.05873e-08
2.22591e-07
-2.37187e-08
-2.80905e-08
2.24571e-07
1.3727e-07
-5.47156e-08
1.46517e-07
-7.44687e-08
1.57913e-07
-7.17135e-08
1.69038e-07
-6.38669e-08
1.7924e-07
-5.57673e-08
1.88442e-07
-4.84944e-08
1.96707e-07
-4.22388e-08
2.04135e-07
-3.6988e-08
2.10836e-07
-3.26626e-08
2.16921e-07
-2.91744e-08
2.22497e-07
-2.64521e-08
2.27659e-07
-2.44556e-08
2.32488e-07
-2.31847e-08
2.37035e-07
-2.26879e-08
2.41293e-07
-2.3061e-08
2.45134e-07
-2.44284e-08
2.48235e-07
-2.68194e-08
-2.99362e-08
2.5008e-07
1.73455e-07
-5.46427e-08
1.79922e-07
-8.0936e-08
1.89322e-07
-8.11132e-08
1.99257e-07
-7.38014e-08
2.08749e-07
-6.52592e-08
2.17514e-07
-5.72594e-08
2.25508e-07
-5.02329e-08
2.32772e-07
-4.42518e-08
2.39379e-07
-3.92697e-08
2.45414e-07
-3.52093e-08
2.50961e-07
-3.1999e-08
2.56095e-07
-2.95901e-08
2.60875e-07
-2.79644e-08
2.65324e-07
-2.7137e-08
2.69407e-07
-2.71445e-08
2.72992e-07
-2.80132e-08
2.75825e-07
-2.96524e-08
-3.17182e-08
2.77607e-07
2.15696e-07
-5.24701e-08
2.19217e-07
-8.44569e-08
2.26187e-07
-8.80832e-08
2.34448e-07
-8.20626e-08
2.42812e-07
-7.36234e-08
2.50792e-07
-6.52398e-08
2.58223e-07
-5.76643e-08
2.65073e-07
-5.11023e-08
2.71369e-07
-4.55657e-08
2.77161e-07
-4.10017e-08
2.82507e-07
-3.73453e-08
2.87459e-07
-3.45419e-08
2.9205e-07
-3.25559e-08
2.96283e-07
-3.13699e-08
3.00107e-07
-3.09691e-08
3.03403e-07
-3.1309e-08
3.05988e-07
-3.22372e-08
-3.34335e-08
3.07703e-07
2.64487e-07
-4.87386e-08
2.65071e-07
-8.50411e-08
2.69302e-07
-9.23142e-08
2.7545e-07
-8.82099e-08
2.82258e-07
-8.04312e-08
2.89077e-07
-7.20593e-08
2.95621e-07
-6.4208e-08
3.01776e-07
-5.72574e-08
3.07513e-07
-5.13032e-08
3.12844e-07
-4.63325e-08
3.17794e-07
-4.22951e-08
3.22387e-07
-3.91356e-08
3.26636e-07
-3.68043e-08
3.30522e-07
-3.52565e-08
3.33991e-07
-3.4438e-08
3.36942e-07
-3.42596e-08
3.39252e-07
-3.45473e-08
-3.50301e-08
3.40849e-07
3.2023e-07
-4.39825e-08
3.18067e-07
-8.28782e-08
3.19387e-07
-9.3635e-08
3.2305e-07
-9.18729e-08
3.27886e-07
-8.52677e-08
3.33152e-07
-7.73258e-08
3.38456e-07
-6.95117e-08
3.43602e-07
-6.2404e-08
3.48503e-07
-5.62041e-08
3.53123e-07
-5.09532e-08
3.57454e-07
-4.6626e-08
3.61491e-07
-4.31728e-08
3.65222e-07
-4.05354e-08
3.68615e-07
-3.86499e-08
3.71613e-07
-3.74364e-08
3.74136e-07
-3.67825e-08
3.76106e-07
-3.65173e-08
-3.64231e-08
3.77499e-07
3.83202e-07
-3.8682e-08
3.78635e-07
-7.83112e-08
3.7703e-07
-9.20296e-08
3.77939e-07
-9.27823e-08
3.80432e-07
-8.7761e-08
3.83758e-07
-8.06518e-08
3.87453e-07
-7.32065e-08
3.91252e-07
-6.62031e-08
3.95008e-07
-5.99605e-08
3.98641e-07
-5.45859e-08
4.02103e-07
-5.00879e-08
4.0536e-07
-4.64298e-08
4.08377e-07
-4.35527e-08
4.11109e-07
-4.13825e-08
4.135e-07
-3.98269e-08
4.15484e-07
-3.8767e-08
4.17015e-07
-3.80485e-08
-3.74995e-08
4.18092e-07
3.77937e-07
-3.39282e-08
3.72632e-07
-7.30064e-08
3.69125e-07
-8.85233e-08
3.67662e-07
-9.13195e-08
3.67738e-07
-8.78369e-08
3.6878e-07
-8.16939e-08
3.70381e-07
-7.48083e-08
3.72283e-07
-6.81054e-08
3.74324e-07
-6.20013e-08
3.76401e-07
-5.6663e-08
3.78446e-07
-5.21332e-08
3.80408e-07
-4.83917e-08
3.8224e-07
-4.53849e-08
3.83896e-07
-4.30378e-08
3.85325e-07
-4.12557e-08
3.86482e-07
-3.99237e-08
3.87336e-07
-3.89028e-08
-3.8067e-08
3.87904e-07
4.99987e-07
-2.86389e-08
4.92547e-07
-6.55673e-08
4.86326e-07
-8.23017e-08
4.82123e-07
-8.71171e-08
4.79742e-07
-8.54554e-08
4.78688e-07
-8.06404e-08
4.78528e-07
-7.46488e-08
4.78951e-07
-6.85282e-08
4.79741e-07
-6.27915e-08
4.80749e-07
-5.76714e-08
4.81868e-07
-5.32522e-08
4.83014e-07
-4.9538e-08
4.84117e-07
-4.64874e-08
4.85111e-07
-4.40316e-08
4.85937e-07
-4.20819e-08
4.86548e-07
-4.05342e-08
4.86918e-07
-3.92727e-08
-3.82038e-08
4.87055e-07
6.62151e-07
-2.30423e-08
6.52499e-07
-5.59155e-08
6.43014e-07
-7.28176e-08
6.35154e-07
-7.92572e-08
6.29189e-07
-7.94905e-08
6.2486e-07
-7.63114e-08
6.21792e-07
-7.15809e-08
6.1966e-07
-6.6396e-08
6.18209e-07
-6.13408e-08
6.17246e-07
-5.67078e-08
6.16619e-07
-5.26251e-08
6.16207e-07
-4.9126e-08
6.15909e-07
-4.61891e-08
6.15637e-07
-4.37599e-08
6.1532e-07
-4.17641e-08
6.14902e-07
-4.01155e-08
6.14354e-07
-3.87242e-08
-3.7522e-08
6.13672e-07
8.74773e-07
-1.73495e-08
8.6311e-07
-4.42515e-08
8.50063e-07
-5.97707e-08
8.37759e-07
-6.69537e-08
8.27052e-07
-6.87834e-08
8.18087e-07
-6.73461e-08
8.10687e-07
-6.41813e-08
8.04597e-07
-6.03058e-08
7.99569e-07
-5.6312e-08
7.95383e-07
-5.25225e-08
7.91856e-07
-4.90973e-08
7.88828e-07
-4.60984e-08
7.86167e-07
-4.35274e-08
7.83758e-07
-4.13513e-08
7.8151e-07
-3.9516e-08
7.79354e-07
-3.79587e-08
7.77246e-07
-3.66158e-08
-3.54404e-08
7.75164e-07
1.14734e-06
-1.16538e-08
1.13399e-06
-3.09073e-08
1.1174e-06
-4.31773e-08
1.1002e-06
-4.97493e-08
1.08382e-06
-5.24033e-08
1.06892e-06
-5.24546e-08
1.0557e-06
-5.09546e-08
1.04407e-06
-4.86811e-08
1.03389e-06
-4.61312e-08
1.02497e-06
-4.35957e-08
1.0171e-06
-4.12336e-08
1.01012e-06
-3.91188e-08
1.00387e-06
-3.72717e-08
9.98195e-07
-3.56794e-08
9.9299e-07
-3.43116e-08
9.88161e-07
-3.31293e-08
9.8364e-07
-3.20948e-08
-3.11795e-08
9.7938e-07
1.48369e-06
-5.79864e-09
1.4688e-06
-1.60231e-08
1.4488e-06
-2.3172e-08
1.42658e-06
-2.75259e-08
1.40404e-06
-2.98653e-08
1.38236e-06
-3.07751e-08
1.36215e-06
-3.07465e-08
1.34366e-06
-3.0186e-08
1.3269e-06
-2.93761e-08
1.3118e-06
-2.84915e-08
1.2982e-06
-2.76333e-08
1.28593e-06
-2.68532e-08
1.27483e-06
-2.61699e-08
1.26473e-06
-2.55822e-08
1.2555e-06
-2.5077e-08
1.247e-06
-2.46371e-08
1.23916e-06
-2.4246e-08
-2.38934e-08
1.23187e-06
1.87155e-06
7.19579e-10
1.85472e-06
8.06796e-10
1.83108e-06
4.65076e-10
1.80374e-06
-1.80496e-10
1.77496e-06
-1.0898e-09
1.74635e-06
-2.15679e-09
1.71889e-06
-3.29355e-09
1.69316e-06
-4.44966e-09
1.66937e-06
-5.59381e-09
1.64759e-06
-6.70396e-09
1.62772e-06
-7.76462e-09
1.60963e-06
-8.76477e-09
1.59315e-06
-9.696e-09
1.57812e-06
-1.05517e-08
1.56437e-06
-1.1327e-08
1.55176e-06
-1.20196e-08
1.54014e-06
-1.26308e-08
-1.31642e-08
1.52941e-06
2.26206e-06
7.41406e-09
2.2421e-06
2.07696e-08
2.21348e-06
2.90791e-08
2.18032e-06
3.29756e-08
2.14548e-06
3.37589e-08
2.11086e-06
3.24618e-08
2.07767e-06
2.98955e-08
2.04655e-06
2.66685e-08
2.01777e-06
2.3186e-08
1.99137e-06
1.9698e-08
1.96725e-06
1.63512e-08
1.94526e-06
1.32266e-08
1.9252e-06
1.03626e-08
1.90688e-06
7.7719e-09
1.8901e-06
5.45133e-09
1.87469e-06
3.38855e-09
1.86049e-06
1.56467e-09
-4.67576e-11
1.84738e-06
1.55404e-06
1.53299e-08
1.53623e-06
3.8586e-08
1.5136e-06
5.17098e-08
1.48948e-06
5.70946e-08
1.46579e-06
5.74448e-08
1.44353e-06
5.4719e-08
1.42311e-06
5.0316e-08
1.4046e-06
4.51759e-08
1.38792e-06
3.98693e-08
1.3729e-06
3.47163e-08
1.35937e-06
2.98868e-08
1.34713e-06
2.54587e-08
1.33604e-06
2.14576e-08
1.32593e-06
1.78772e-08
1.31669e-06
1.46959e-08
1.3082e-06
1.18824e-08
1.30036e-06
9.40241e-09
7.21702e-09
1.29309e-06
1.23257e-06
2.36465e-08
1.21548e-06
5.56713e-08
1.19621e-06
7.09823e-08
1.17779e-06
7.55084e-08
1.16137e-06
7.38659e-08
1.14716e-06
6.893e-08
1.13497e-06
6.25083e-08
1.12448e-06
5.56624e-08
1.11539e-06
4.89571e-08
1.10744e-06
4.2671e-08
1.1004e-06
3.69249e-08
1.0941e-06
3.1754e-08
1.08841e-06
2.71466e-08
1.08322e-06
2.30682e-08
1.07845e-06
1.94735e-08
1.07401e-06
1.63143e-08
1.06987e-06
1.35425e-08
1.11095e-08
1.06598e-06
9.49296e-07
3.27094e-08
9.34462e-07
7.05052e-08
9.20724e-07
8.47201e-08
9.09821e-07
8.64106e-08
9.01722e-07
8.19654e-08
8.95855e-07
7.47964e-08
8.91595e-07
6.67681e-08
8.88438e-07
5.88189e-08
8.8602e-07
5.13741e-08
8.84089e-07
4.46018e-08
8.8247e-07
3.85435e-08
8.81046e-07
3.31782e-08
8.79737e-07
2.84554e-08
8.78491e-07
2.43141e-08
8.77274e-07
2.06905e-08
8.76064e-07
1.75244e-08
8.74847e-07
1.47595e-08
1.23421e-08
8.73614e-07
7.11831e-07
4.18234e-08
7.01379e-07
8.09573e-08
6.94928e-07
9.11713e-08
6.92231e-07
8.91073e-08
6.92154e-07
8.20415e-08
6.93636e-07
7.33149e-08
6.95914e-07
6.44897e-08
6.98513e-07
5.62191e-08
7.01151e-07
4.87356e-08
7.03665e-07
4.20876e-08
7.05967e-07
3.6242e-08
7.08013e-07
3.11317e-08
7.09789e-07
2.66788e-08
7.11298e-07
2.2805e-08
7.12551e-07
1.94377e-08
7.13564e-07
1.65106e-08
7.14358e-07
1.39663e-08
1.17507e-08
7.14949e-07
5.20105e-07
4.95899e-08
5.16017e-07
8.50451e-08
5.17495e-07
8.9694e-08
5.22373e-07
8.42286e-08
5.28902e-07
7.55126e-08
5.35948e-07
6.62683e-08
5.42891e-07
5.75467e-08
5.49423e-07
4.96876e-08
5.55403e-07
4.27554e-08
5.60783e-07
3.67073e-08
5.65564e-07
3.14608e-08
5.69773e-07
2.69223e-08
5.73451e-07
2.30007e-08
5.76643e-07
1.96128e-08
5.79396e-07
1.66843e-08
5.81756e-07
1.41512e-08
5.83763e-07
1.1959e-08
1.00584e-08
5.85455e-07
3.70149e-07
5.42543e-08
3.73511e-07
8.16835e-08
3.82259e-07
8.09462e-08
3.93094e-07
7.3393e-08
4.04253e-07
6.43537e-08
4.14886e-07
5.56351e-08
4.24657e-07
4.77762e-08
4.33461e-07
4.08827e-08
4.41302e-07
3.49145e-08
4.4823e-07
2.97797e-08
4.54317e-07
2.53739e-08
4.59642e-07
2.15963e-08
4.64287e-07
1.83563e-08
4.68325e-07
1.55748e-08
4.71825e-07
1.31835e-08
4.74852e-07
1.11245e-08
4.77461e-07
9.3503e-09
7.82053e-09
4.79699e-07
2.5615e-07
5.41641e-08
2.66803e-07
7.10307e-08
2.8118e-07
6.65686e-08
2.95914e-07
5.86589e-08
3.09698e-07
5.05699e-08
3.22147e-07
4.31867e-08
3.3322e-07
3.67033e-08
3.42984e-07
3.11184e-08
3.51547e-07
2.63514e-08
3.59029e-07
2.22972e-08
3.65552e-07
1.88518e-08
3.71226e-07
1.59215e-08
3.76156e-07
1.34262e-08
3.80434e-07
1.12974e-08
3.84139e-07
9.47762e-09
3.87346e-07
7.91819e-09
3.90116e-07
6.58018e-09
5.43461e-09
3.92501e-07
1.71738e-07
4.81369e-08
1.88368e-07
5.44003e-08
2.06162e-07
4.87746e-08
2.22729e-07
4.20923e-08
2.37419e-07
3.58805e-08
2.5029e-07
3.03156e-08
2.61517e-07
2.54761e-08
2.71275e-07
2.13606e-08
2.79735e-07
1.78908e-08
2.87061e-07
1.49717e-08
2.93398e-07
1.25143e-08
2.98877e-07
1.04428e-08
3.03611e-07
8.69235e-09
3.07698e-07
7.20999e-09
3.11225e-07
5.95142e-09
3.14264e-07
4.87906e-09
3.16882e-07
3.96229e-09
3.18421e-09
3.19131e-07
1.10753e-07
3.56703e-08
1.31057e-07
3.40966e-08
1.49737e-07
3.00942e-08
1.66284e-07
2.5545e-08
1.80527e-07
2.16376e-08
1.92776e-07
1.8067e-08
2.03302e-07
1.49496e-08
2.12333e-07
1.23304e-08
2.20072e-07
1.01519e-08
2.26702e-07
8.34142e-09
2.32381e-07
6.83518e-09
2.37244e-07
5.57952e-09
2.41407e-07
4.52984e-09
2.44966e-07
3.65009e-09
2.48007e-07
2.91083e-09
2.506e-07
2.28649e-09
2.52808e-07
1.75334e-09
1.30409e-09
2.54688e-07
6.73349e-08
1.73271e-08
8.74628e-08
1.39688e-08
1.04338e-07
1.32187e-08
1.1918e-07
1.07027e-08
1.31802e-07
9.01619e-09
1.42484e-07
7.38483e-09
1.51495e-07
5.93864e-09
1.5908e-07
4.74629e-09
1.65457e-07
3.77492e-09
1.70815e-07
2.98288e-09
1.75313e-07
2.33649e-09
1.79085e-07
1.80816e-09
1.8224e-07
1.37485e-09
1.84871e-07
1.01885e-09
1.87057e-07
7.2581e-10
1.8886e-07
4.82929e-10
1.90337e-07
2.75881e-10
9.25876e-11
1.91548e-07
3.11195e-08
4.50883e-08
5.8307e-08
6.90097e-08
7.80259e-08
8.54108e-08
9.13494e-08
9.60957e-08
9.98706e-08
1.02853e-07
1.0519e-07
1.06998e-07
1.08373e-07
1.09392e-07
1.10118e-07
1.10601e-07
1.10876e-07
1.10969e-07
3.99139e-09
-3.98543e-09
7.79892e-09
-3.79769e-09
9.14282e-09
-1.33449e-09
7.64234e-09
1.50857e-09
3.66475e-09
3.98635e-09
-2.20131e-09
5.87302e-09
-9.43562e-09
7.24248e-09
-1.76811e-08
8.25056e-09
-2.67047e-08
9.03102e-09
-3.63822e-08
9.68053e-09
-4.66142e-08
1.02384e-08
-5.73198e-08
1.07069e-08
-6.83848e-08
1.10707e-08
-7.9696e-08
1.13112e-08
-9.11041e-08
1.14139e-08
-1.02477e-07
1.13724e-08
-1.13658e-07
1.11878e-08
-1.24528e-07
1.08684e-08
-1.34949e-07
1.04271e-08
-1.44832e-07
9.88011e-09
-1.54071e-07
9.245e-09
-1.62615e-07
8.53929e-09
-1.7039e-07
7.78004e-09
-1.77377e-07
6.98175e-09
-1.8353e-07
6.15819e-09
-1.88857e-07
5.32052e-09
-1.93328e-07
4.47866e-09
-1.96971e-07
3.63887e-09
-1.9977e-07
2.80634e-09
-2.01755e-07
1.98328e-09
-2.02919e-07
1.17427e-09
-2.03309e-07
3.8991e-10
-2.02956e-07
-3.41902e-10
-2.01948e-07
-1.00468e-09
-2.00327e-07
-1.60734e-09
-1.98157e-07
-2.16489e-09
-1.95458e-07
-2.68502e-09
-1.92278e-07
-3.17354e-09
-1.88634e-07
-3.6324e-09
-1.84563e-07
-4.06408e-09
-1.80084e-07
-4.46875e-09
-1.7523e-07
-4.84783e-09
-1.7002e-07
-5.20117e-09
-1.64485e-07
-5.52928e-09
-1.58647e-07
-5.8312e-09
-1.52532e-07
-6.10881e-09
-1.46162e-07
-6.36244e-09
-1.39562e-07
-6.59221e-09
-1.32757e-07
-6.79805e-09
-1.25765e-07
-6.98093e-09
-1.18615e-07
-7.14098e-09
-1.11321e-07
-7.27795e-09
-1.03917e-07
-7.39275e-09
-9.64122e-08
-7.48605e-09
-8.88412e-08
-7.5594e-09
-8.12068e-08
-7.61255e-09
-7.35472e-08
-7.64702e-09
-6.58613e-08
-7.6628e-09
-5.81888e-08
-7.66196e-09
-5.05223e-08
-7.64392e-09
-4.29023e-08
-7.61107e-09
-3.53192e-08
-7.56312e-09
-2.78127e-08
-7.50283e-09
-2.03674e-08
-7.42917e-09
-1.3025e-08
-7.34249e-09
-5.77637e-09
-7.23479e-09
1.34184e-09
-7.11997e-09
8.36996e-09
-7.01595e-09
1.52692e-08
-6.90195e-09
2.20433e-08
-6.76379e-09
2.86553e-08
-6.61524e-09
3.5124e-08
-6.45964e-09
4.14218e-08
-6.30088e-09
4.75695e-08
-6.1388e-09
5.35439e-08
-5.97586e-09
5.93648e-08
-5.81114e-09
6.5012e-08
-5.6464e-09
7.05017e-08
-5.481e-09
7.5817e-08
-5.31655e-09
8.0975e-08
-5.15217e-09
8.59617e-08
-4.98918e-09
9.07916e-08
-4.82705e-09
9.54537e-08
-4.66697e-09
9.99628e-08
-4.50829e-09
1.0431e-07
-4.35203e-09
1.08507e-07
-4.19782e-09
1.12547e-07
-4.04634e-09
1.16438e-07
-3.89679e-09
1.20176e-07
-3.74914e-09
1.23766e-07
-3.60427e-09
1.27218e-07
-3.46231e-09
1.30533e-07
-3.32339e-09
1.33716e-07
-3.18745e-09
1.36766e-07
-3.0544e-09
1.39687e-07
-2.92428e-09
1.4248e-07
-2.79711e-09
1.4515e-07
-2.67297e-09
1.477e-07
-2.55181e-09
1.50131e-07
-2.43369e-09
1.52448e-07
-2.31849e-09
1.54653e-07
-2.20633e-09
1.5675e-07
-2.09699e-09
1.58741e-07
-1.99068e-09
1.60629e-07
-1.88704e-09
1.62417e-07
-1.78649e-09
1.64108e-07
-1.6886e-09
1.65703e-07
-1.59382e-09
1.67206e-07
-1.50164e-09
1.68618e-07
-1.41238e-09
1.69944e-07
-1.32555e-09
1.71185e-07
-1.2415e-09
1.72345e-07
-1.15975e-09
1.73425e-07
-1.08066e-09
1.74428e-07
-1.00377e-09
1.75356e-07
-9.29422e-10
1.76212e-07
-8.57181e-10
1.76998e-07
-7.87338e-10
1.77716e-07
-7.19461e-10
1.78367e-07
-6.53843e-10
1.78956e-07
-5.9026e-10
1.79483e-07
-5.28858e-10
1.79951e-07
-4.6928e-10
1.80362e-07
-4.11757e-10
1.80717e-07
-3.56029e-10
1.81019e-07
-3.02474e-10
1.81269e-07
-2.50815e-10
1.81468e-07
-2.0128e-10
1.81621e-07
-1.53503e-10
1.81726e-07
-1.07642e-10
1.81788e-07
-6.29682e-11
1.81803e-07
-1.7582e-11
1.81773e-07
2.89097e-11
1.81698e-07
7.291e-11
1.81582e-07
1.13341e-10
1.81429e-07
1.50531e-10
1.81242e-07
1.85365e-10
1.81021e-07
2.18052e-10
1.80769e-07
2.49173e-10
1.80487e-07
2.78673e-10
1.80177e-07
3.06654e-10
1.79841e-07
3.32687e-10
1.79481e-07
3.56084e-10
1.79101e-07
3.76829e-10
1.78698e-07
3.99536e-10
1.78271e-07
4.23994e-10
1.7782e-07
4.48932e-10
1.77342e-07
4.74626e-10
1.76845e-07
4.95042e-10
1.76328e-07
5.14462e-10
1.75793e-07
5.3349e-10
1.75239e-07
5.51758e-10
1.74668e-07
5.6912e-10
1.74078e-07
5.87153e-10
1.73471e-07
6.05039e-10
1.72852e-07
6.17473e-10
1.72216e-07
6.34443e-10
1.71562e-07
6.51825e-10
1.70895e-07
6.64593e-10
1.70213e-07
6.81064e-10
1.69513e-07
6.97534e-10
1.68796e-07
7.15484e-10
1.6806e-07
7.34396e-10
1.67303e-07
7.56367e-10
1.66519e-07
7.81769e-10
1.65714e-07
8.03504e-10
1.64878e-07
8.35097e-10
1.64004e-07
8.73179e-10
1.63091e-07
9.11584e-10
1.62124e-07
9.65639e-10
1.61079e-07
1.04357e-09
1.5994e-07
1.1385e-09
1.58684e-07
1.25494e-09
1.57263e-07
1.42072e-09
1.55601e-07
1.66115e-09
1.53602e-07
1.99832e-09
1.51111e-07
2.49019e-09
1.47852e-07
3.25874e-09
1.43311e-07
4.54053e-09
1.36662e-07
6.64881e-09
1.1028e-08
1.25634e-07
1.13432e-09
-5.1125e-09
-7.18316e-10
-1.9342e-09
-5.23916e-09
3.19426e-09
-1.17285e-08
8.00389e-09
-1.98062e-08
1.20697e-08
-2.92439e-08
1.53152e-08
-3.97913e-08
1.77947e-08
-5.11701e-08
1.96327e-08
-6.31012e-08
2.09662e-08
-7.53239e-08
2.19054e-08
-8.75992e-08
2.25172e-08
-9.97243e-08
2.2833e-08
-1.11519e-07
2.28689e-08
-1.22845e-07
2.26375e-08
-1.33582e-07
2.21541e-08
-1.43649e-07
2.1439e-08
-1.52976e-07
2.05178e-08
-1.61527e-07
1.94195e-08
-1.69271e-07
1.81752e-08
-1.76208e-07
1.68157e-08
-1.82331e-07
1.53707e-08
-1.87659e-07
1.38667e-08
-1.92204e-07
1.23275e-08
-1.95998e-07
1.07733e-08
-1.99058e-07
9.22083e-09
-2.01422e-07
7.68347e-09
-2.03113e-07
6.17192e-09
-2.04169e-07
4.69428e-09
-2.04617e-07
3.25775e-09
-2.04502e-07
1.8689e-09
-2.03859e-07
5.35482e-10
-2.02732e-07
-7.34768e-10
-2.0113e-07
-1.93936e-09
-1.99049e-07
-3.08262e-09
-1.96482e-07
-4.16795e-09
-1.93446e-07
-5.1978e-09
-1.89951e-07
-6.17409e-09
-1.86021e-07
-7.09879e-09
-1.81675e-07
-7.97301e-09
-1.76937e-07
-8.7979e-09
-1.71827e-07
-9.57394e-09
-1.6637e-07
-1.03018e-08
-1.60585e-07
-1.09815e-08
-1.54497e-07
-1.16136e-08
-1.48127e-07
-1.21982e-08
-1.41496e-07
-1.27358e-08
-1.34628e-07
-1.32268e-08
-1.27545e-07
-1.36717e-08
-1.20267e-07
-1.40713e-08
-1.12817e-07
-1.44266e-08
-1.05214e-07
-1.47383e-08
-9.74787e-08
-1.50068e-08
-8.96326e-08
-1.52328e-08
-8.16934e-08
-1.54175e-08
-7.36832e-08
-1.55628e-08
-6.56172e-08
-1.56696e-08
-5.75173e-08
-1.57397e-08
-4.93969e-08
-1.57743e-08
-4.12767e-08
-1.57754e-08
-3.31678e-08
-1.57442e-08
-2.50897e-08
-1.56831e-08
-1.70521e-08
-1.55936e-08
-9.0723e-09
-1.54785e-08
-1.15681e-09
-1.53393e-08
6.68196e-09
-1.51787e-08
1.44471e-08
-1.49957e-08
2.21214e-08
-1.47925e-08
2.96801e-08
-1.45711e-08
3.71096e-08
-1.43302e-08
4.44183e-08
-1.40696e-08
5.15983e-08
-1.37946e-08
5.86491e-08
-1.35079e-08
6.55619e-08
-1.32131e-08
7.2337e-08
-1.29115e-08
7.89676e-08
-1.26053e-08
8.5455e-08
-1.22952e-08
9.17931e-08
-1.19829e-08
9.79839e-08
-1.16689e-08
1.04023e-07
-1.13547e-08
1.09913e-07
-1.10403e-08
1.1565e-07
-1.07272e-08
1.21239e-07
-1.04153e-08
1.26676e-07
-1.0106e-08
1.31967e-07
-9.79904e-09
1.37108e-07
-9.49569e-09
1.42105e-07
-9.19574e-09
1.46956e-07
-8.89994e-09
1.51663e-07
-8.60781e-09
1.56227e-07
-8.31967e-09
1.6065e-07
-8.03578e-09
1.64938e-07
-7.75685e-09
1.69093e-07
-7.48326e-09
1.73118e-07
-7.21484e-09
1.77012e-07
-6.95169e-09
1.8078e-07
-6.69366e-09
1.84422e-07
-6.44099e-09
1.87941e-07
-6.19355e-09
1.91339e-07
-5.95155e-09
1.94619e-07
-5.7148e-09
1.97783e-07
-5.48345e-09
2.00834e-07
-5.25733e-09
2.03773e-07
-5.03647e-09
2.06604e-07
-4.82082e-09
2.09329e-07
-4.6104e-09
2.11949e-07
-4.40509e-09
2.14467e-07
-4.20477e-09
2.16884e-07
-4.00951e-09
2.19202e-07
-3.81923e-09
2.21424e-07
-3.63388e-09
2.23552e-07
-3.45328e-09
2.25588e-07
-3.27738e-09
2.27533e-07
-3.10603e-09
2.29391e-07
-2.93918e-09
2.31164e-07
-2.77669e-09
2.32852e-07
-2.61853e-09
2.34458e-07
-2.46453e-09
2.35985e-07
-2.31463e-09
2.37432e-07
-2.16874e-09
2.38803e-07
-2.02673e-09
2.401e-07
-1.88858e-09
2.41324e-07
-1.75425e-09
2.42478e-07
-1.62363e-09
2.43562e-07
-1.49676e-09
2.44579e-07
-1.37361e-09
2.4553e-07
-1.25426e-09
2.46417e-07
-1.13865e-09
2.47241e-07
-1.02673e-09
2.48005e-07
-9.18264e-10
2.48709e-07
-8.1316e-10
2.49355e-07
-7.10962e-10
2.49948e-07
-6.11403e-10
2.50489e-07
-5.14176e-10
2.5098e-07
-4.19664e-10
2.5142e-07
-3.28535e-10
2.51809e-07
-2.41089e-10
2.5215e-07
-1.57186e-10
2.52442e-07
-7.65727e-11
2.52688e-07
1.17045e-12
2.52887e-07
7.60197e-11
2.53043e-07
1.47737e-10
2.53156e-07
2.16091e-10
2.53228e-07
2.80408e-10
2.53257e-07
3.45297e-10
2.53248e-07
4.0587e-10
2.53203e-07
4.65918e-10
2.53123e-07
5.27442e-10
2.53012e-07
5.83004e-10
2.52864e-07
6.40584e-10
2.52683e-07
6.93149e-10
2.52471e-07
7.44085e-10
2.52227e-07
7.93409e-10
2.51953e-07
8.41199e-10
2.51649e-07
8.89111e-10
2.51321e-07
9.31537e-10
2.50959e-07
9.77945e-10
2.50569e-07
1.02199e-09
2.50157e-07
1.06234e-09
2.49713e-07
1.10734e-09
2.49242e-07
1.14969e-09
2.48745e-07
1.1934e-09
2.4822e-07
1.2388e-09
2.47666e-07
1.28623e-09
2.47083e-07
1.33839e-09
2.46473e-07
1.3906e-09
2.45823e-07
1.45221e-09
2.45135e-07
1.521e-09
2.4441e-07
1.59709e-09
2.43629e-07
1.69127e-09
2.42787e-07
1.80722e-09
2.41878e-07
1.95163e-09
2.4088e-07
2.13511e-09
2.39759e-07
2.37461e-09
2.38483e-07
2.69631e-09
2.37009e-07
3.13444e-09
2.35255e-07
3.75133e-09
2.33098e-07
4.64733e-09
2.30339e-07
6.01748e-09
2.26731e-07
8.14807e-09
2.21659e-07
1.17211e-08
1.78268e-08
2.1486e-07
-3.56723e-09
-1.54009e-09
-1.05533e-08
5.05877e-09
-1.88732e-08
1.15187e-08
-2.78699e-08
1.70037e-08
-3.73685e-08
2.15713e-08
-4.73141e-08
2.52631e-08
-5.76422e-08
2.81252e-08
-6.82371e-08
3.02293e-08
-7.89338e-08
3.1665e-08
-8.95496e-08
3.25221e-08
-9.99088e-08
3.28782e-08
-1.09872e-07
3.27972e-08
-1.19333e-07
3.23307e-08
-1.28219e-07
3.15241e-08
-1.36484e-07
3.04203e-08
-1.44106e-07
2.9061e-08
-1.51074e-07
2.74873e-08
-1.57393e-07
2.57388e-08
-1.63069e-07
2.3853e-08
-1.68118e-07
2.18644e-08
-1.7255e-07
1.98041e-08
-1.76383e-07
1.76994e-08
-1.79628e-07
1.5574e-08
-1.82303e-07
1.34477e-08
-1.84418e-07
1.13372e-08
-1.8599e-07
9.25568e-09
-1.87031e-07
7.21413e-09
-1.87557e-07
5.22113e-09
-1.87582e-07
3.2839e-09
-1.87121e-07
1.40859e-09
-1.86184e-07
-3.99516e-10
-1.84781e-07
-2.13695e-09
-1.82914e-07
-3.80345e-09
-1.80595e-07
-5.40025e-09
-1.77832e-07
-6.92793e-09
-1.74641e-07
-8.38691e-09
-1.71035e-07
-9.77753e-09
-1.67032e-07
-1.11001e-08
-1.62647e-07
-1.23548e-08
-1.57901e-07
-1.35418e-08
-1.52812e-07
-1.46612e-08
-1.47398e-07
-1.5713e-08
-1.41681e-07
-1.66972e-08
-1.35678e-07
-1.7614e-08
-1.29411e-07
-1.84634e-08
-1.22899e-07
-1.92459e-08
-1.16162e-07
-1.99617e-08
-1.0922e-07
-2.06113e-08
-1.02094e-07
-2.11956e-08
-9.48022e-08
-2.17158e-08
-8.73646e-08
-2.21733e-08
-7.97992e-08
-2.2569e-08
-7.21252e-08
-2.29037e-08
-6.436e-08
-2.3179e-08
-5.65224e-08
-2.33969e-08
-4.86287e-08
-2.35592e-08
-4.06966e-08
-2.3668e-08
-3.27413e-08
-2.37255e-08
-2.47789e-08
-2.37339e-08
-1.68231e-08
-2.36959e-08
-8.88843e-09
-2.36143e-08
-9.8649e-10
-2.34921e-08
6.8696e-09
-2.33319e-08
1.46687e-08
-2.31358e-08
2.23988e-08
-2.29068e-08
3.00522e-08
-2.2647e-08
3.762e-08
-2.23586e-08
4.50935e-08
-2.2043e-08
5.24662e-08
-2.17016e-08
5.97343e-08
-2.13365e-08
6.68917e-08
-2.09511e-08
7.39334e-08
-2.05487e-08
8.08535e-08
-2.01325e-08
8.7648e-08
-1.97052e-08
9.43127e-08
-1.92691e-08
1.00845e-07
-1.88262e-08
1.07241e-07
-1.83785e-08
1.13501e-07
-1.79273e-08
1.19621e-07
-1.74742e-08
1.25601e-07
-1.70204e-08
1.31441e-07
-1.6567e-08
1.37141e-07
-1.61151e-08
1.427e-07
-1.56657e-08
1.4812e-07
-1.52194e-08
1.53401e-07
-1.47772e-08
1.58544e-07
-1.43395e-08
1.6355e-07
-1.39069e-08
1.6842e-07
-1.34796e-08
1.73154e-07
-1.30577e-08
1.77756e-07
-1.2642e-08
1.82229e-07
-1.22329e-08
1.86575e-07
-1.18308e-08
1.90794e-07
-1.1436e-08
1.9489e-07
-1.10482e-08
1.98863e-07
-1.06677e-08
2.02716e-07
-1.02944e-08
2.06451e-07
-9.92855e-09
2.10069e-07
-9.57002e-09
2.13572e-07
-9.21893e-09
2.16964e-07
-8.8752e-09
2.20246e-07
-8.53883e-09
2.2342e-07
-8.20974e-09
2.26488e-07
-7.88787e-09
2.29452e-07
-7.57325e-09
2.32314e-07
-7.26567e-09
2.35075e-07
-6.96512e-09
2.37738e-07
-6.67148e-09
2.40304e-07
-6.38479e-09
2.42775e-07
-6.10485e-09
2.45154e-07
-5.83163e-09
2.47441e-07
-5.5649e-09
2.4964e-07
-5.30463e-09
2.51751e-07
-5.05062e-09
2.53776e-07
-4.80281e-09
2.55718e-07
-4.56101e-09
2.57578e-07
-4.32516e-09
2.59358e-07
-4.0951e-09
2.61059e-07
-3.87076e-09
2.62683e-07
-3.65198e-09
2.64233e-07
-3.43875e-09
2.65709e-07
-3.231e-09
2.67113e-07
-3.0286e-09
2.68448e-07
-2.83152e-09
2.69714e-07
-2.63976e-09
2.70912e-07
-2.45328e-09
2.72045e-07
-2.27207e-09
2.73114e-07
-2.09592e-09
2.7412e-07
-1.92466e-09
2.75064e-07
-1.75818e-09
2.75948e-07
-1.59627e-09
2.76775e-07
-1.43892e-09
2.77546e-07
-1.28604e-09
2.78262e-07
-1.13743e-09
2.78926e-07
-9.93208e-10
2.79537e-07
-8.53498e-10
2.80097e-07
-7.18318e-10
2.80606e-07
-5.87611e-10
2.81067e-07
-4.61218e-10
2.8148e-07
-3.39009e-10
2.81847e-07
-2.20934e-10
2.82168e-07
-1.07097e-10
2.82444e-07
2.70047e-12
2.82676e-07
1.11589e-10
2.82865e-07
2.15143e-10
2.83014e-07
3.15491e-10
2.83126e-07
4.1458e-10
2.832e-07
5.07611e-10
2.83238e-07
6.01615e-10
2.83239e-07
6.90969e-10
2.83204e-07
7.77374e-10
2.83135e-07
8.61218e-10
2.83033e-07
9.42777e-10
2.82898e-07
1.02289e-09
2.82731e-07
1.0979e-09
2.82531e-07
1.1761e-09
2.82301e-07
1.25112e-09
2.82041e-07
1.32214e-09
2.8175e-07
1.39739e-09
2.81428e-07
1.47017e-09
2.81077e-07
1.54389e-09
2.80696e-07
1.6193e-09
2.80284e-07
1.69746e-09
2.79841e-07
1.78053e-09
2.79365e-07
1.86574e-09
2.78853e-07
1.96342e-09
2.78303e-07
2.07056e-09
2.7771e-07
2.18943e-09
2.77066e-07
2.33397e-09
2.76366e-07
2.50735e-09
2.75599e-07
2.71747e-09
2.74751e-07
2.98322e-09
2.73796e-07
3.32905e-09
2.72707e-07
3.78458e-09
2.71448e-07
4.3935e-09
2.69956e-07
5.24241e-09
2.68153e-07
6.44997e-09
2.65931e-07
8.23919e-09
2.63171e-07
1.09082e-08
2.59734e-07
1.51577e-08
2.18196e-08
2.55741e-07
-6.84196e-09
5.30592e-09
-1.63657e-08
1.45871e-08
-2.63574e-08
2.15134e-08
-3.63104e-08
2.69587e-08
-4.61075e-08
3.13702e-08
-5.57328e-08
3.48896e-08
-6.51856e-08
3.75795e-08
-7.44482e-08
3.94927e-08
-8.34739e-08
4.0692e-08
-9.22006e-08
4.12492e-08
-1.00561e-07
4.12394e-08
-1.08499e-07
4.07352e-08
-1.1597e-07
3.98032e-08
-1.22951e-07
3.85044e-08
-1.29424e-07
3.68946e-08
-1.35388e-07
3.5025e-08
-1.40842e-07
3.29426e-08
-1.45794e-07
3.06904e-08
-1.50247e-07
2.83071e-08
-1.5421e-07
2.58271e-08
-1.57686e-07
2.32811e-08
-1.60682e-07
2.06958e-08
-1.63201e-07
1.80939e-08
-1.65248e-07
1.5495e-08
-1.66825e-07
1.29157e-08
-1.67939e-07
1.03694e-08
-1.68591e-07
7.86751e-09
-1.68789e-07
5.41927e-09
-1.68536e-07
3.03226e-09
-1.6784e-07
7.12674e-10
-1.66703e-07
-1.53461e-09
-1.65134e-07
-3.70622e-09
-1.63136e-07
-5.80021e-09
-1.6072e-07
-7.81535e-09
-1.57896e-07
-9.75063e-09
-1.54677e-07
-1.16052e-08
-1.51075e-07
-1.33781e-08
-1.47105e-07
-1.50686e-08
-1.42782e-07
-1.66761e-08
-1.38123e-07
-1.81998e-08
-1.33144e-07
-1.96393e-08
-1.27861e-07
-2.0994e-08
-1.22293e-07
-2.22636e-08
-1.16458e-07
-2.34478e-08
-1.10374e-07
-2.45465e-08
-1.04058e-07
-2.556e-08
-9.75303e-08
-2.64885e-08
-9.08077e-08
-2.73324e-08
-8.39092e-08
-2.80926e-08
-7.68529e-08
-2.87704e-08
-6.96571e-08
-2.93675e-08
-6.23388e-08
-2.98853e-08
-5.49154e-08
-3.03252e-08
-4.74033e-08
-3.06888e-08
-3.98195e-08
-3.09786e-08
-3.21795e-08
-3.11967e-08
-2.44992e-08
-3.13459e-08
-1.67931e-08
-3.14289e-08
-9.07577e-09
-3.14488e-08
-1.36014e-09
-3.14088e-08
6.34023e-09
-3.13123e-08
1.40127e-08
-3.11622e-08
2.16448e-08
-3.0962e-08
2.92261e-08
-3.0715e-08
3.67462e-08
-3.04251e-08
4.41964e-08
-3.00956e-08
5.15688e-08
-2.97295e-08
5.88567e-08
-2.93296e-08
6.60541e-08
-2.88979e-08
7.31559e-08
-2.84374e-08
8.01566e-08
-2.79511e-08
8.7051e-08
-2.74425e-08
9.3834e-08
-2.69151e-08
1.00501e-07
-2.63719e-08
1.07049e-07
-2.58161e-08
1.13473e-07
-2.52501e-08
1.19772e-07
-2.46765e-08
1.25942e-07
-2.40974e-08
1.31983e-07
-2.35146e-08
1.37893e-07
-2.29299e-08
1.4367e-07
-2.23449e-08
1.49316e-07
-2.1761e-08
1.5483e-07
-2.11793e-08
1.60211e-07
-2.06012e-08
1.65461e-07
-2.00274e-08
1.7058e-07
-1.94589e-08
1.75569e-07
-1.88963e-08
1.80428e-07
-1.83402e-08
1.85159e-07
-1.7791e-08
1.89764e-07
-1.72492e-08
1.94244e-07
-1.67156e-08
1.98603e-07
-1.61905e-08
2.02841e-07
-1.56742e-08
2.06959e-07
-1.51668e-08
2.1096e-07
-1.46683e-08
2.14844e-07
-1.41789e-08
2.18614e-07
-1.36987e-08
2.22272e-07
-1.32277e-08
2.25819e-07
-1.2766e-08
2.29258e-07
-1.23135e-08
2.3259e-07
-1.18702e-08
2.35817e-07
-1.1436e-08
2.38941e-07
-1.10109e-08
2.41964e-07
-1.05948e-08
2.44887e-07
-1.01875e-08
2.47712e-07
-9.78921e-09
2.50441e-07
-9.39956e-09
2.53075e-07
-9.01862e-09
2.55617e-07
-8.64615e-09
2.58067e-07
-8.28213e-09
2.60429e-07
-7.92632e-09