/*--------------------------------*- C++ -*----------------------------------*\
| =========                 |                                                 |
| \\      /  F ield         | OpenFOAM: The Open Source CFD Toolbox           |
|  \\    /   O peration     | Version:  2112                                  |
|   \\  /    A nd           | Website:  www.openfoam.com                      |
|    \\/     M anipulation  |                                                 |
\*---------------------------------------------------------------------------*/
FoamFile
{
    version     2.0;
    format      ascii;
    arch        "LSB;label=32;scalar=64";
    class       volVectorField;
    location    "100";
    object      U;
}
// * * * * * * * * * * * * * * * * * * * * * * * * * * * * * * * * * * * * * //

dimensions      [0 1 -1 0 0 0 0];

internalField   nonuniform List<vector> 
12225
(
(0.0356721 -0.0379316 0)
(0.085002 -0.00713197 0)
(0.110017 -0.00437949 0)
(0.13345 -0.00369506 0)
(0.153959 -0.00305401 0)
(0.170704 -0.0024292 0)
(0.184171 -0.00191434 0)
(0.195071 -0.00151123 0)
(0.203986 -0.00120288 0)
(0.211398 -0.00097408 0)
(0.217716 -0.000815362 0)
(0.223315 -0.000725837 0)
(0.228577 -0.000717062 0)
(0.233969 -0.00082166 0)
(0.240183 -0.00112823 0)
(0.248469 -0.00189457 0)
(0.261827 -0.00337817 0)
(0.284467 -0.0158809 0)
(0.103769 -0.0138845 0)
(0.13843 -0.0133135 0)
(0.177975 -0.0110878 0)
(0.210447 -0.00971879 0)
(0.238244 -0.00847264 0)
(0.261925 -0.00725661 0)
(0.282029 -0.00621066 0)
(0.299201 -0.00535503 0)
(0.314001 -0.00467521 0)
(0.326912 -0.0041564 0)
(0.338366 -0.0037933 0)
(0.348765 -0.00359869 0)
(0.358518 -0.00361439 0)
(0.368095 -0.00394117 0)
(0.378144 -0.0048044 0)
(0.389589 -0.00676916 0)
(0.404329 -0.0111468 0)
(0.422487 -0.0223289 0)
(0.14972 -0.0188132 0)
(0.178539 -0.0218519 0)
(0.220682 -0.0190704 0)
(0.254689 -0.0168837 0)
(0.283829 -0.0149038 0)
(0.309036 -0.013062 0)
(0.330851 -0.011469 0)
(0.349844 -0.0101447 0)
(0.366507 -0.00907651 0)
(0.38128 -0.00825061 0)
(0.394559 -0.00766583 0)
(0.406715 -0.00734605 0)
(0.418114 -0.00735673 0)
(0.429148 -0.00784289 0)
(0.44029 -0.00910855 0)
(0.452016 -0.0118217 0)
(0.464883 -0.0173408 0)
(0.477136 -0.028528 0)
(0.196866 -0.0264379 0)
(0.21944 -0.0311123 0)
(0.25834 -0.0281058 0)
(0.290952 -0.0250693 0)
(0.319353 -0.0222766 0)
(0.344209 -0.0197472 0)
(0.365975 -0.0175574 0)
(0.385132 -0.015723 0)
(0.4021 -0.0142308 0)
(0.417265 -0.013067 0)
(0.430979 -0.0122328 0)
(0.443569 -0.0117592 0)
(0.45535 -0.0117261 0)
(0.466629 -0.0123001 0)
(0.477713 -0.013802 0)
(0.488764 -0.016845 0)
(0.499655 -0.0224207 0)
(0.508505 -0.0317815 0)
(0.247098 -0.0314776 0)
(0.263522 -0.0395351 0)
(0.296527 -0.0372419 0)
(0.326127 -0.0336241 0)
(0.352639 -0.030105 0)
(0.376182 -0.0269206 0)
(0.397033 -0.024148 0)
(0.415558 -0.0218064 0)
(0.432095 -0.0198859 0)
(0.446964 -0.0183746 0)
(0.460468 -0.0172765 0)
(0.472886 -0.0166267 0)
(0.484475 -0.0165103 0)
(0.495464 -0.0170944 0)
(0.506025 -0.0186715 0)
(0.516131 -0.0217236 0)
(0.525414 -0.0268481 0)
(0.532287 -0.0343657 0)
(0.300667 -0.0340882 0)
(0.311226 -0.0464704 0)
(0.337209 -0.0456532 0)
(0.362714 -0.0419136 0)
(0.386488 -0.0378889 0)
(0.408032 -0.0341629 0)
(0.427376 -0.030877 0)
(0.44474 -0.0280729 0)
(0.460364 -0.0257518 0)
(0.474498 -0.023908 0)
(0.487386 -0.022549 0)
(0.499253 -0.0217117 0)
(0.510301 -0.0214782 0)
(0.520685 -0.0219987 0)
(0.530479 -0.0235106 0)
(0.53956 -0.0263466 0)
(0.547527 -0.0307952 0)
(0.553161 -0.0367338 0)
(0.357419 -0.0348115 0)
(0.362579 -0.0516435 0)
(0.381225 -0.0528483 0)
(0.401891 -0.0495131 0)
(0.422243 -0.0452856 0)
(0.44122 -0.0411863 0)
(0.45857 -0.0374932 0)
(0.474342 -0.0342973 0)
(0.488667 -0.0316231 0)
(0.501716 -0.0294766 0)
(0.513668 -0.027871 0)
(0.524693 -0.0268424 0)
(0.534934 -0.026464 0)
(0.544485 -0.0268582 0)
(0.553355 -0.0281972 0)
(0.56138 -0.0306785 0)
(0.568221 -0.0343822 0)
(0.572985 -0.0390151 0)
(0.416922 -0.0340325 0)
(0.417333 -0.0549014 0)
(0.428874 -0.058496 0)
(0.44425 -0.0560721 0)
(0.460643 -0.0519919 0)
(0.476567 -0.0477339 0)
(0.491492 -0.0437724 0)
(0.505289 -0.0402796 0)
(0.517971 -0.0373179 0)
(0.529624 -0.0349127 0)
(0.540358 -0.033085 0)
(0.550285 -0.0318699 0)
(0.559492 -0.0313275 0)
(0.568024 -0.0315479 0)
(0.575845 -0.0326401 0)
(0.582794 -0.0346949 0)
(0.588613 -0.0376673 0)
(0.592665 -0.0412316 0)
(0.478509 -0.032092 0)
(0.475051 -0.0562001 0)
(0.480098 -0.0623423 0)
(0.490018 -0.061262 0)
(0.502077 -0.057693 0)
(0.514542 -0.0535263 0)
(0.52666 -0.0494677 0)
(0.538132 -0.0457983 0)
(0.548854 -0.042635 0)
(0.558822 -0.0400307 0)
(0.568076 -0.0380184 0)
(0.576669 -0.0366325 0)
(0.584638 -0.0359194 0)
(0.591985 -0.0359374 0)
(0.59865 -0.0367416 0)
(0.604488 -0.0383475 0)
(0.609326 -0.0406463 0)
(0.612701 -0.0433423 0)
(0.54137 -0.0293426 0)
(0.535122 -0.0556051 0)
(0.534538 -0.0642223 0)
(0.539113 -0.0647875 0)
(0.546641 -0.0620694 0)
(0.555346 -0.0582617 0)
(0.564338 -0.0543027 0)
(0.573176 -0.0506014 0)
(0.581647 -0.047343 0)
(0.589661 -0.0446166 0)
(0.59719 -0.0424717 0)
(0.604229 -0.0409445 0)
(0.61077 -0.0400695 0)
(0.61678 -0.0398779 0)
(0.622186 -0.0403838 0)
(0.626867 -0.0415552 0)
(0.630713 -0.0432609 0)
(0.633372 -0.0452567 0)
(0.60465 -0.0261042 0)
(0.596702 -0.0533038 0)
(0.591539 -0.0640733 0)
(0.591146 -0.066416 0)
(0.594148 -0.0648224 0)
(0.598928 -0.0616327 0)
(0.604556 -0.0579823 0)
(0.610505 -0.0544117 0)
(0.616472 -0.0511831 0)
(0.622291 -0.0484286 0)
(0.627871 -0.0462192 0)
(0.633154 -0.0445963 0)
(0.638092 -0.0435862 0)
(0.642624 -0.0432004 0)
(0.64667 -0.0434255 0)
(0.65013 -0.0442046 0)
(0.652939 -0.0454088 0)
(0.654807 -0.0468473 0)
(0.662241 -0.0228882 0)
(0.653607 -0.0499174 0)
(0.645315 -0.0621534 0)
(0.640923 -0.0660643 0)
(0.639972 -0.0656518 0)
(0.641143 -0.0632232 0)
(0.643569 -0.0600361 0)
(0.646701 -0.0567379 0)
(0.650187 -0.0536607 0)
(0.653808 -0.0509789 0)
(0.657423 -0.0487863 0)
(0.660935 -0.0471326 0)
(0.664262 -0.046041 0)
(0.667323 -0.0455122 0)
(0.670034 -0.0455188 0)
(0.672309 -0.0459957 0)
(0.674105 -0.0468264 0)
(0.675161 -0.0478702 0)
(0.718111 -0.019658 0)
(0.709479 -0.0456761 0)
(0.69903 -0.0588365 0)
(0.691267 -0.0641131 0)
(0.686703 -0.0649028 0)
(0.68441 -0.0633456 0)
(0.683654 -0.0607505 0)
(0.683922 -0.0578468 0)
(0.684845 -0.0550276 0)
(0.686171 -0.052508 0)
(0.687721 -0.0504052 0)
(0.689366 -0.0487798 0)
(0.690997 -0.047656 0)
(0.692519 -0.0470293 0)
(0.693842 -0.0468669 0)
(0.694887 -0.0471043 0)
(0.695624 -0.0476416 0)
(0.695808 -0.048382 0)
(0.779257 -0.0161594 0)
(0.771199 -0.0399544 0)
(0.759424 -0.0534023 0)
(0.748703 -0.0598243 0)
(0.740582 -0.061878 0)
(0.734651 -0.0613819 0)
(0.730398 -0.0595929 0)
(0.727417 -0.0572832 0)
(0.725372 -0.054896 0)
(0.724 -0.0526842 0)
(0.723102 -0.05079 0)
(0.722523 -0.049288 0)
(0.722133 -0.0482078 0)
(0.721822 -0.0475462 0)
(0.721497 -0.047272 0)
(0.721083 -0.047329 0)
(0.720544 -0.0476395 0)
(0.71966 -0.0481389 0)
(0.843506 -0.012564 0)
(0.836426 -0.0328149 0)
(0.824281 -0.0455572 0)
(0.811382 -0.0525639 0)
(0.800126 -0.0556894 0)
(0.79069 -0.0563088 0)
(0.782861 -0.0554932 0)
(0.776415 -0.0539808 0)
(0.771112 -0.0522289 0)
(0.766721 -0.0505125 0)
(0.763047 -0.0489933 0)
(0.759924 -0.0477595 0)
(0.757215 -0.0468495 0)
(0.7548 -0.0462669 0)
(0.75258 -0.0459887 0)
(0.750479 -0.0459728 0)
(0.748449 -0.0461651 0)
(0.746295 -0.0465243 0)
(0.90663 -0.0089644 0)
(0.900649 -0.0244802 0)
(0.888956 -0.0352352 0)
(0.874884 -0.0418825 0)
(0.861295 -0.0455247 0)
(0.848896 -0.0470449 0)
(0.837792 -0.0472111 0)
(0.827992 -0.0466243 0)
(0.819411 -0.0456927 0)
(0.811901 -0.0446767 0)
(0.805306 -0.0437374 0)
(0.799477 -0.0429678 0)
(0.794281 -0.0424131 0)
(0.789597 -0.0420852 0)
(0.785324 -0.0419731 0)
(0.781383 -0.042051 0)
(0.777713 -0.0422866 0)
(0.774144 -0.0426565 0)
(0.961093 -0.00533492 0)
(0.956024 -0.0151503 0)
(0.945202 -0.0225583 0)
(0.930873 -0.0276221 0)
(0.915954 -0.0308602 0)
(0.901509 -0.0327126 0)
(0.887895 -0.0335969 0)
(0.875334 -0.033886 0)
(0.863917 -0.0338592 0)
(0.853615 -0.0337065 0)
(0.844343 -0.0335516 0)
(0.835992 -0.0334696 0)
(0.828451 -0.0335004 0)
(0.821609 -0.0336583 0)
(0.81537 -0.033941 0)
(0.809649 -0.0343359 0)
(0.804376 -0.0348274 0)
(0.799421 -0.0354052 0)
(0.994169 -0.00152187 0)
(0.989625 -0.00475258 0)
(0.979585 -0.00754922 0)
(0.965489 -0.00977193 0)
(0.95012 -0.0115305 0)
(0.934705 -0.0129133 0)
(0.919734 -0.0140126 0)
(0.905551 -0.0149305 0)
(0.892371 -0.0157525 0)
(0.880265 -0.0165395 0)
(0.869212 -0.0173316 0)
(0.859148 -0.0181528 0)
(0.849988 -0.0190148 0)
(0.84164 -0.0199198 0)
(0.834015 -0.0208637 0)
(0.827029 -0.0218397 0)
(0.820609 -0.0228415 0)
(0.814675 -0.0238669 0)
(0.985584 0.00240945 0)
(0.981318 0.00670959 0)
(0.971437 0.00977943 0)
(0.957429 0.011564 0)
(0.942132 0.0122558 0)
(0.926819 0.0120836 0)
(0.911971 0.0112707 0)
(0.897908 0.0100126 0)
(0.884831 0.00846219 0)
(0.872806 0.00673153 0)
(0.861809 0.00490013 0)
(0.85178 0.00302396 0)
(0.842636 0.00114172 0)
(0.834292 -0.000719757 0)
(0.826662 -0.00254242 0)
(0.819665 -0.00431491 0)
(0.813228 -0.00603236 0)
(0.807329 -0.00769756 0)
(0.92588 0.00691609 0)
(0.919771 0.0189871 0)
(0.908203 0.0273702 0)
(0.893622 0.0322386 0)
(0.878975 0.0343877 0)
(0.865203 0.0345529 0)
(0.852483 0.0333644 0)
(0.840889 0.0313274 0)
(0.830423 0.0288029 0)
(0.821007 0.0260316 0)
(0.812532 0.0231701 0)
(0.804886 0.0203175 0)
(0.797964 0.0175351 0)
(0.791673 0.0148584 0)
(0.78593 0.0123066 0)
(0.780663 0.00988744 0)
(0.775811 0.00760036 0)
(0.771392 0.00543496 0)
(0.84449 0.0119853 0)
(0.837024 0.0307223 0)
(0.824701 0.0422088 0)
(0.811114 0.0479658 0)
(0.798923 0.0498026 0)
(0.788463 0.0490816 0)
(0.779485 0.0468137 0)
(0.77177 0.0437016 0)
(0.765116 0.0401906 0)
(0.759325 0.0365492 0)
(0.754229 0.0329369 0)
(0.749694 0.0294446 0)
(0.745616 0.0261208 0)
(0.741912 0.0229879 0)
(0.738516 0.0200527 0)
(0.735376 0.0173116 0)
(0.732449 0.0147551 0)
(0.729778 0.0123655 0)
(0.748259 0.0175258 0)
(0.739613 0.0415551 0)
(0.728254 0.0540019 0)
(0.718036 0.0588645 0)
(0.710513 0.0592221 0)
(0.705157 0.0570179 0)
(0.701284 0.0534927 0)
(0.69844 0.0493904 0)
(0.696303 0.0451252 0)
(0.694633 0.0409204 0)
(0.693266 0.0368927 0)
(0.692089 0.0330988 0)
(0.691028 0.0295602 0)
(0.690034 0.0262788 0)
(0.689073 0.0232454 0)
(0.688122 0.0204454 0)
(0.687168 0.017861 0)
(0.686271 0.0154695 0)
(0.645439 0.0233899 0)
(0.636796 0.0502808 0)
(0.629034 0.0613163 0)
(0.624719 0.0639443 0)
(0.623636 0.0623132 0)
(0.624474 0.0586361 0)
(0.626295 0.0541286 0)
(0.628568 0.0494151 0)
(0.630976 0.0447973 0)
(0.633328 0.040416 0)
(0.635516 0.0363309 0)
(0.637485 0.0325591 0)
(0.639213 0.0290952 0)
(0.640695 0.0259227 0)
(0.64194 0.0230199 0)
(0.642959 0.0203636 0)
(0.643766 0.0179309 0)
(0.644444 0.0156955 0)
(0.541931 0.0289365 0)
(0.53549 0.0554375 0)
(0.534295 0.063229 0)
(0.537843 0.0631595 0)
(0.544071 0.0597627 0)
(0.551316 0.0551054 0)
(0.558673 0.0501501 0)
(0.565709 0.0453133 0)
(0.572218 0.0407653 0)
(0.578114 0.0365676 0)
(0.583379 0.0327308 0)
(0.588033 0.0292411 0)
(0.592113 0.0260743 0)
(0.595665 0.0232015 0)
(0.598737 0.020594 0)
(0.601377 0.018224 0)
(0.603627 0.0160671 0)
(0.605583 0.0140971 0)
(0.442175 0.0330918 0)
(0.440569 0.0559239 0)
(0.448475 0.0597128 0)
(0.460796 0.0573605 0)
(0.474218 0.0529209 0)
(0.487342 0.0479751 0)
(0.499551 0.043134 0)
(0.510627 0.0386129 0)
(0.520534 0.0344787 0)
(0.529314 0.0307371 0)
(0.537045 0.0273669 0)
(0.543821 0.0243366 0)
(0.549738 0.0216118 0)
(0.554889 0.0191588 0)
(0.559362 0.0169462 0)
(0.563233 0.0149458 0)
(0.56657 0.0131343 0)
(0.569482 0.0114889 0)
(0.349582 0.0345288 0)
(0.354928 0.0513852 0)
(0.373482 0.0515613 0)
(0.394318 0.0479113 0)
(0.414019 0.0433268 0)
(0.43201 0.0387463 0)
(0.448104 0.0344691 0)
(0.462335 0.0305823 0)
(0.474839 0.0270951 0)
(0.48578 0.0239837 0)
(0.495325 0.0212126 0)
(0.503636 0.0187432 0)
(0.510861 0.0165394 0)
(0.517133 0.0145676 0)
(0.522571 0.0127984 0)
(0.527279 0.0112056 0)
(0.531344 0.00976838 0)
(0.534887 0.00847066 0)
(0.266401 0.0318388 0)
(0.279933 0.0422642 0)
(0.309093 0.0402261 0)
(0.337089 0.0364121 0)
(0.361639 0.0324648 0)
(0.383239 0.0287167 0)
(0.40213 0.0252883 0)
(0.418565 0.0222225 0)
(0.432824 0.0195084 0)
(0.445176 0.0171134 0)
(0.455865 0.0149993 0)
(0.465108 0.0131297 0)
(0.473096 0.0114718 0)
(0.479996 0.00999674 0)
(0.485951 0.00867926 0)
(0.491086 0.00749698 0)
(0.495504 0.00643218 0)
(0.499338 0.00547572 0)
(0.193288 0.0245358 0)
(0.215853 0.0301468 0)
(0.252962 0.0278154 0)
(0.285711 0.0247209 0)
(0.313348 0.0218479 0)
(0.337134 0.0191281 0)
(0.357612 0.0166405 0)
(0.375186 0.0144386 0)
(0.390248 0.0125116 0)
(0.403153 0.0108279 0)
(0.414206 0.00935477 0)
(0.423673 0.00806232 0)
(0.431778 0.00692399 0)
(0.438713 0.00591737 0)
(0.444641 0.00502323 0)
(0.4497 0.00422363 0)
(0.454005 0.00350231 0)
(0.457697 0.00285602 0)
(0.12772 0.0185977 0)
(0.160613 0.0184754 0)
(0.198571 0.0167217 0)
(0.232281 0.0146116 0)
(0.260681 0.0127847 0)
(0.28471 0.0109959 0)
(0.305028 0.00934805 0)
(0.322143 0.00791419 0)
(0.336533 0.00668425 0)
(0.348627 0.00562895 0)
(0.358785 0.00472099 0)
(0.367307 0.00393689 0)
(0.374445 0.00325622 0)
(0.380408 0.00266247 0)
(0.38537 0.00214196 0)
(0.389482 0.00168134 0)
(0.392853 0.00126412 0)
(0.395633 0.000889008 0)
(0.0433022 0.0444556 0)
(0.099053 0.0110841 0)
(0.124632 0.00782417 0)
(0.151724 0.00648642 0)
(0.175541 0.00546386 0)
(0.195031 0.00448478 0)
(0.210798 0.00359915 0)
(0.223439 0.00285859 0)
(0.23351 0.00225154 0)
(0.24149 0.00175275 0)
(0.247769 0.00134135 0)
(0.252659 0.00100078 0)
(0.256412 0.000717166 0)
(0.259232 0.000479873 0)
(0.261283 0.000280281 0)
(0.262706 0.000111091 0)
(0.263582 -3.8093e-05 0)
(0.264055 -0.000179667 0)
(0.00193072 -0.00457302 1.72012e-21)
(0.00558138 -0.00580554 -1.80721e-21)
(0.00795344 -0.00380805 1.33146e-21)
(0.00799073 -0.000735406 4.39033e-22)
(0.0054862 0.00208688 -7.02321e-22)
(0.000998644 0.00416482 1.71777e-22)
(-0.00492161 0.00552159 1.50953e-22)
(-0.0118705 0.00642006 -6.05745e-22)
(-0.0195944 0.00712183 3.07136e-22)
(-0.0279476 0.0077788 -9.32488e-23)
(-0.0368414 0.00844053 -3.49876e-23)
(-0.046204 0.00909804 4.09002e-22)
(-0.0559503 0.00970935 -5.89098e-22)
(-0.0659794 0.0102265 -5.98424e-22)
(-0.076173 0.01061 -4.98152e-23)
(-0.0864042 0.0108343 -1.98702e-22)
(-0.0965424 0.0108884 -7.27733e-23)
(-0.106463 0.0107734 -1.16088e-22)
(-0.11605 0.0105005 -1.58358e-22)
(-0.125201 0.0100868 -1.56445e-23)
(-0.133828 0.00955365 4.83138e-23)
(-0.141862 0.00892323 -3.69529e-22)
(-0.149246 0.00821683 4.41906e-23)
(-0.155939 0.00745183 -3.41782e-22)
(-0.16191 0.00664363 6.88952e-23)
(-0.167138 0.00580414 -2.58653e-22)
(-0.171615 0.00494387 -1.30433e-22)
(-0.175339 0.00407214 -8.58002e-23)
(-0.178319 0.00320154 3.47963e-22)
(-0.180564 0.00234662 6.46441e-23)
(-0.182085 0.00152605 4.57262e-22)
(-0.182887 0.000759951 -2.95859e-22)
(-0.182967 7.02012e-05 -2.33313e-22)
(-0.182432 -0.000539125 3.15641e-22)
(-0.18134 -0.00108458 5.23031e-22)
(-0.179725 -0.00158525 3.78831e-23)
(-0.177625 -0.00205005 -2.31949e-22)
(-0.175067 -0.00248537 -6.18377e-22)
(-0.172081 -0.00289374 -4.68074e-22)
(-0.16869 -0.00327792 -1.17269e-21)
(-0.164918 -0.00363858 -5.01933e-22)
(-0.160788 -0.00397748 -1.42755e-22)
(-0.156324 -0.004295 2.05842e-21)
(-0.151546 -0.00459061 4.57419e-22)
(-0.146479 -0.00486244 -1.01556e-21)
(-0.141143 -0.00511548 -5.61921e-23)
(-0.135561 -0.00535181 -2.80263e-21)
(-0.129752 -0.00556935 -9.67182e-22)
(-0.123738 -0.00576725 -4.19603e-22)
(-0.11754 -0.00594718 3.67958e-21)
(-0.111177 -0.00610883 -3.19885e-21)
(-0.10467 -0.00625245 -3.13076e-22)
(-0.0980394 -0.00637972 -4.69514e-21)
(-0.0913045 -0.00649108 -3.97633e-21)
(-0.0844848 -0.00658778 -1.66621e-21)
(-0.0775978 -0.00666948 -4.19432e-21)
(-0.0706614 -0.00673738 -6.13161e-21)
(-0.063693 -0.00679161 7.26305e-21)
(-0.0567095 -0.00683369 -3.14648e-21)
(-0.0497259 -0.00686321 -3.88039e-21)
(-0.0427569 -0.00688204 1.00722e-20)
(-0.0358172 -0.00688987 7.15021e-21)
(-0.0289197 -0.00688836 -6.04256e-21)
(-0.0220758 -0.00687568 -7.84755e-21)
(-0.0152973 -0.00685087 -2.38453e-21)
(-0.00860408 -0.00680066 9.9345e-21)
(-0.00200667 -0.00669511 -1.16148e-21)
(0.0045037 -0.00651134 -5.59537e-22)
(0.0109247 -0.00627897 -2.77816e-21)
(0.0172371 -0.00603265 -1.35031e-20)
(0.0234267 -0.00578644 6.69197e-22)
(0.029485 -0.00554357 9.67216e-21)
(0.0354074 -0.00530694 -1.03752e-20)
(0.0411907 -0.00507619 -3.76592e-21)
(0.0468335 -0.00485284 6.07085e-21)
(0.0523342 -0.00463582 -5.02908e-21)
(0.0576922 -0.00442602 7.71715e-22)
(0.0629056 -0.00422263 -9.64526e-21)
(0.0679735 -0.0040265 -4.43378e-21)
(0.0728959 -0.00383663 6.53652e-21)
(0.0776739 -0.00365357 1.86472e-21)
(0.0823078 -0.00347668 -3.68637e-22)
(0.0867985 -0.00330651 -7.31965e-21)
(0.0911478 -0.0031423 -9.08535e-21)
(0.0953581 -0.00298446 -7.99888e-21)
(0.0994306 -0.00283251 8.12202e-21)
(0.103368 -0.00268671 -1.72918e-20)
(0.107169 -0.0025463 6.87333e-22)
(0.110836 -0.00241087 -1.2428e-20)
(0.11437 -0.00228086 1.76392e-20)
(0.117775 -0.00215624 9.4834e-21)
(0.121058 -0.00203681 -7.99424e-21)
(0.124223 -0.00192235 -1.16613e-20)
(0.12727 -0.00181269 1.7754e-21)
(0.1302 -0.0017077 1.10435e-20)
(0.133016 -0.00160724 1.10165e-20)
(0.135719 -0.00151119 -1.13583e-20)
(0.138314 -0.0014194 6.15359e-21)
(0.140801 -0.00133174 1.47693e-20)
(0.143185 -0.00124802 6.47957e-21)
(0.145467 -0.00116817 -1.61112e-20)
(0.14765 -0.00109192 -8.16038e-21)
(0.149738 -0.00101924 -1.23137e-20)
(0.151732 -0.000949908 7.60759e-21)
(0.153635 -0.000884017 -2.45077e-21)
(0.155448 -0.000821202 -8.61821e-22)
(0.157175 -0.000761632 1.60094e-21)
(0.158817 -0.000704984 3.51772e-21)
(0.160376 -0.000651313 5.36281e-21)
(0.161856 -0.000600278 8.86563e-21)
(0.163258 -0.00055195 1.2356e-20)
(0.164585 -0.000506015 -6.66151e-21)
(0.165839 -0.000462543 9.48056e-21)
(0.167022 -0.000421255 9.4683e-21)
(0.168136 -0.000382226 -1.70616e-20)
(0.169184 -0.000345191 1.03246e-21)
(0.170167 -0.000310201 1.15023e-20)
(0.171087 -0.000277013 1.23271e-20)
(0.171945 -0.000245671 -1.17243e-20)
(0.172745 -0.000216041 -9.05924e-22)
(0.173488 -0.000188115 -3.76748e-21)
(0.174176 -0.000161682 2.56256e-21)
(0.17481 -0.000136792 7.80571e-21)
(0.175394 -0.000113285 -6.90394e-21)
(0.175927 -9.12972e-05 6.40053e-21)
(0.176412 -7.06932e-05 -6.10417e-21)
(0.17685 -5.1534e-05 -8.76317e-21)
(0.177243 -3.35976e-05 3.3147e-21)
(0.177593 -1.68648e-05 -9.84749e-21)
(0.177901 -8.76736e-07 9.34871e-21)
(0.17817 1.52645e-05 -2.45104e-20)
(0.178394 3.18387e-05 2.33637e-21)
(0.178575 4.72469e-05 3.14822e-20)
(0.178717 6.06655e-05 -8.39493e-21)
(0.178823 7.21601e-05 2.30368e-21)
(0.178896 8.22022e-05 -1.3674e-20)
(0.178937 9.10064e-05 -1.99769e-20)
(0.178949 9.8873e-05 1.91952e-20)
(0.178932 0.000105893 8.10605e-21)
(0.178888 0.000112368 -1.8286e-21)
(0.17882 0.000117981 3.15129e-20)
(0.178727 0.000122627 2.53228e-20)
(0.17861 0.000123889 -1.2215e-20)
(0.178492 0.000127864 -1.18296e-20)
(0.178326 0.000133127 -1.91091e-20)
(0.17816 0.000137277 -2.52375e-20)
(0.177958 0.000144985 -1.73447e-20)
(0.177727 0.000147085 -2.57022e-20)
(0.177503 0.000149804 1.16687e-20)
(0.177229 0.0001523 1.00111e-20)
(0.17697 0.000154537 1.59622e-20)
(0.176662 0.000156527 1.09958e-20)
(0.17637 0.000157958 2.90119e-20)
(0.176036 0.000161414 1.82833e-21)
(0.175691 0.000159794 1.09297e-21)
(0.175352 0.0001618 -1.77862e-20)
(0.174975 0.000164909 2.63406e-20)
(0.174585 0.000163747 -1.46608e-20)
(0.174202 0.00016631 1.91037e-21)
(0.173773 0.000167836 6.48676e-21)
(0.173359 0.000169947 2.22149e-21)
(0.172895 0.000172381 5.31509e-21)
(0.172443 0.000175139 2.36259e-20)
(0.171943 0.000180606 1.09408e-20)
(0.171422 0.000182286 4.8517e-21)
(0.170894 0.000188692 6.44865e-21)
(0.170311 0.000197369 1.70971e-20)
(0.169686 0.000204028 -7.023e-22)
(0.169037 0.00021661 1.73468e-20)
(0.168306 0.000236892 2.3481e-20)
(0.167483 0.000260462 2.14261e-20)
(0.166546 0.00028871 -7.31281e-22)
(0.165485 0.000332168 1.77336e-21)
(0.164206 0.000397027 -3.92895e-21)
(0.162615 0.000486536 -4.61836e-20)
(0.160599 0.000622224 2.14304e-20)
(0.158035 0.00082712 1.48204e-20)
(0.154026 0.00121749 -2.84488e-20)
(0.150032 0.00176687 -2.72123e-20)
(0.136569 0.00302855 4.10273e-20)
(0.000878071 -0.0104588 -4.65274e-21)
(0.000620086 -0.00811681 2.35963e-21)
(-0.00225606 -0.000479719 7.60195e-22)
(-0.0071452 0.00731665 -1.41373e-21)
(-0.0136419 0.0139204 -2.80359e-22)
(-0.0214927 0.0190156 -1.56688e-22)
(-0.0304526 0.0227256 1.49002e-22)
(-0.0402824 0.0253627 6.89217e-22)
(-0.0507306 0.0272496 5.38781e-23)
(-0.0615541 0.0286173 6.61615e-22)
(-0.0725344 0.0295827 -3.81546e-23)
(-0.083475 0.0301796 2.05925e-23)
(-0.0942044 0.0304134 -2.31027e-22)
(-0.104581 0.0302833 -4.52996e-23)
(-0.114489 0.0297963 5.93087e-23)
(-0.12384 0.028972 4.64496e-22)
(-0.132565 0.0278424 9.08526e-23)
(-0.140617 0.0264481 -3.69384e-22)
(-0.147968 0.024835 3.85983e-22)
(-0.154601 0.0230502 -1.0032e-22)
(-0.160514 0.0211393 -7.69264e-24)
(-0.165712 0.0191442 -1.73341e-22)
(-0.170209 0.0171021 -1.85788e-22)
(-0.174023 0.0150447 -1.54439e-22)
(-0.177175 0.0129984 -1.94558e-22)
(-0.179691 0.0109837 1.10712e-22)
(-0.181595 0.00901639 -2.72336e-23)
(-0.182916 0.00710676 -3.54134e-23)
(-0.18368 0.00526259 1.40464e-22)
(-0.18392 0.00348952 1.05566e-22)
(-0.183668 0.00179631 1.78032e-22)
(-0.182958 0.000196919 6.67276e-23)
(-0.181836 -0.00128678 5.1038e-22)
(-0.180283 -0.00264971 -2.34171e-22)
(-0.178288 -0.00390466 3.52043e-22)
(-0.17586 -0.00506573 -4.73871e-22)
(-0.173009 -0.00614234 5.00279e-22)
(-0.169753 -0.00714201 -1.39941e-22)
(-0.16611 -0.00806903 -4.10292e-22)
(-0.162098 -0.00892754 3.77406e-22)
(-0.157736 -0.00971969 -3.16502e-22)
(-0.153045 -0.0104482 1.47029e-22)
(-0.148043 -0.0111145 5.7386e-22)
(-0.142751 -0.0117208 1.93094e-21)
(-0.137187 -0.0122682 1.51391e-21)
(-0.131371 -0.0127589 -1.82658e-23)
(-0.125323 -0.013194 2.21563e-21)
(-0.119063 -0.0135759 6.5218e-22)
(-0.112609 -0.0139067 -2.42247e-21)
(-0.105981 -0.0141883 -4.03125e-21)
(-0.0991967 -0.0144223 -9.70245e-22)
(-0.0922751 -0.0146096 4.73111e-22)
(-0.0852337 -0.0147519 5.81585e-22)
(-0.078091 -0.0148518 1.84999e-21)
(-0.0708645 -0.0149121 1.49765e-21)
(-0.0635711 -0.0149346 4.16912e-21)
(-0.0562273 -0.0149216 5.21469e-21)
(-0.0488491 -0.0148751 1.14976e-21)
(-0.041452 -0.0147978 -8.3093e-22)
(-0.0340504 -0.0146914 4.65411e-21)
(-0.0266582 -0.014559 -3.81711e-21)
(-0.0192888 -0.0144024 1.63081e-21)
(-0.0119544 -0.0142247 7.15738e-21)
(-0.00466671 -0.0140273 -5.17676e-22)
(0.00256821 -0.0138116 -5.59323e-21)
(0.00974503 -0.0135768 2.15963e-21)
(0.0168555 -0.0133188 -2.45862e-22)
(0.0238813 -0.013027 5.43833e-21)
(0.0308045 -0.0127043 -1.91102e-21)
(0.0376226 -0.0123619 3.44801e-21)
(0.0443363 -0.0120095 -6.55586e-23)
(0.0509414 -0.0116521 4.35587e-21)
(0.0574335 -0.0112939 -9.45677e-23)
(0.0638084 -0.0109363 2.76721e-21)
(0.070063 -0.0105814 -3.76053e-21)
(0.0761946 -0.0102297 6.61867e-21)
(0.0822009 -0.00988257 -8.82422e-22)
(0.0880796 -0.00954003 7.0187e-21)
(0.0938293 -0.00920334 -2.61124e-22)
(0.0994492 -0.00887234 -5.78e-21)
(0.104939 -0.00854805 -1.16062e-21)
(0.110298 -0.00823026 3.52026e-21)
(0.115527 -0.00791984 5.40152e-21)
(0.120627 -0.00761653 -3.1059e-21)
(0.125598 -0.00732107 -9.00262e-21)
(0.130441 -0.00703315 2.88502e-21)
(0.135158 -0.00675314 1.6215e-22)
(0.139748 -0.00648037 2.52918e-22)
(0.144213 -0.00621475 -6.19928e-21)
(0.148554 -0.00595666 -2.23733e-20)
(0.152773 -0.00570652 -4.98219e-21)
(0.156877 -0.00546444 -9.43636e-21)
(0.160865 -0.00523006 2.09508e-20)
(0.164739 -0.00500314 1.02468e-20)
(0.168501 -0.00478346 -6.83258e-21)
(0.172151 -0.00457103 -1.41337e-20)
(0.175693 -0.00436567 7.93713e-21)
(0.179128 -0.00416733 3.26114e-21)
(0.182457 -0.0039758 5.72255e-21)
(0.185684 -0.00379097 -8.56307e-21)
(0.18881 -0.00361264 1.21584e-20)
(0.191837 -0.00344067 9.32595e-21)
(0.194768 -0.00327496 6.16224e-21)
(0.197604 -0.00311532 -2.07337e-20)
(0.200347 -0.00296152 2.39726e-21)
(0.202998 -0.00281331 -1.52736e-21)
(0.20556 -0.00267077 -8.16663e-21)
(0.208034 -0.00253368 -1.80328e-20)
(0.210422 -0.00240192 2.51064e-21)
(0.212725 -0.00227521 7.26039e-21)
(0.214946 -0.00215345 -6.25607e-22)
(0.217087 -0.00203638 1.42367e-20)
(0.219149 -0.00192395 -1.58901e-20)
(0.221134 -0.0018159 -6.14961e-21)
(0.223044 -0.00171219 -4.91878e-21)
(0.22488 -0.00161258 -1.27458e-20)
(0.226644 -0.00151697 -1.58613e-20)
(0.228338 -0.00142518 8.52004e-21)
(0.229963 -0.00133709 -5.72161e-21)
(0.23152 -0.00125262 -8.64969e-21)
(0.233012 -0.00117169 -1.08664e-20)
(0.234441 -0.00109412 1.29285e-21)
(0.235808 -0.00101986 4.93135e-22)
(0.237113 -0.000948808 1.01406e-20)
(0.23836 -0.000880994 9.78896e-21)
(0.239548 -0.000816313 1.1142e-20)
(0.240679 -0.000754712 -1.14757e-20)
(0.241756 -0.000695943 1.71173e-21)
(0.242779 -0.000639944 7.82779e-21)
(0.24375 -0.00058636 1.65198e-21)
(0.244669 -0.000534355 1.06392e-20)
(0.245544 -0.000483532 1.45093e-20)
(0.246373 -0.000435077 7.57638e-21)
(0.247157 -0.000389699 -4.41339e-21)
(0.247896 -0.000347369 -3.91557e-21)
(0.24859 -0.000307742 -4.32844e-21)
(0.249241 -0.000270563 5.97036e-21)
(0.249849 -0.000235457 -3.31819e-20)
(0.250416 -0.000202397 4.62076e-22)
(0.250942 -0.000171499 2.04786e-20)
(0.251429 -0.00014292 -1.11505e-20)
(0.25188 -0.000116945 1.37974e-20)
(0.252292 -8.9335e-05 5.31125e-21)
(0.252666 -6.64836e-05 -9.9842e-21)
(0.253011 -4.37025e-05 -3.04895e-21)
(0.25332 -1.87028e-05 -1.35802e-20)
(0.253603 6.48063e-07 -7.79443e-21)
(0.253856 2.35686e-05 1.52231e-20)
(0.254074 4.20173e-05 2.32293e-20)
(0.254268 5.96781e-05 -2.97215e-20)
(0.25443 7.64813e-05 8.64568e-21)
(0.254568 9.23081e-05 1.64993e-21)
(0.254675 0.000108582 -4.20953e-20)
(0.254762 0.00011981 9.93707e-22)
(0.254821 0.000135991 5.9474e-22)
(0.254851 0.000149662 -1.18427e-20)
(0.254862 0.000159483 1.43585e-20)
(0.254846 0.000174403 1.91838e-20)
(0.254803 0.000186412 1.92069e-20)
(0.254739 0.000198947 1.64305e-20)
(0.254646 0.000212191 -2.3477e-20)
(0.254532 0.00022613 2.90952e-21)
(0.254388 0.000242622 -5.94261e-21)
(0.25422 0.000256926 1.57844e-20)
(0.254019 0.000277572 -4.64102e-21)
(0.253781 0.000300278 1.83852e-20)
(0.253509 0.000323719 -1.78172e-20)
(0.25319 0.000356685 -2.71196e-20)
(0.252812 0.000397853 -4.049e-20)
(0.252373 0.000448877 -1.8717e-20)
(0.251856 0.000515416 -8.30263e-21)
(0.251232 0.000604756 3.9479e-21)
(0.250463 0.000725883 2.37952e-21)
(0.24952 0.000891284 -2.73485e-20)
(0.248326 0.00112653 -2.53611e-20)
(0.246781 0.00147106 3.47553e-20)
(0.244777 0.00200545 4.23004e-20)
(0.241759 0.00283951 3.95272e-20)
(0.238683 0.00425573 1.98251e-20)
(0.2301 0.00680688 -4.26312e-20)
(-0.0012658 -0.0074946 -8.22493e-22)
(-0.00643974 0.00174695 -2.66759e-21)
(-0.0129607 0.0128397 -1.62993e-21)
(-0.0205573 0.0225853 1.09506e-21)
(-0.0288035 0.0306587 -2.80109e-22)
(-0.0374887 0.0370617 1.6488e-22)
(-0.0465472 0.0419052 8.68739e-23)
(-0.0559074 0.0453783 -7.20392e-22)
(-0.0654439 0.0477001 -6.10839e-22)
(-0.074998 0.0490705 -5.17e-22)
(-0.0844031 0.0496431 -2.37622e-22)
(-0.0935166 0.049527 -2.17735e-22)
(-0.102231 0.0488024 6.67268e-22)
(-0.110467 0.0475388 3.90662e-22)
(-0.118173 0.0458036 -1.30881e-22)
(-0.125318 0.0436653 2.6199e-22)
(-0.131888 0.0411939 -2.31524e-22)
(-0.137882 0.0384585 -3.17845e-23)
(-0.143304 0.0355256 -2.8147e-22)
(-0.148164 0.0324563 -2.25446e-22)
(-0.152473 0.0293058 1.96344e-22)
(-0.156243 0.0261215 4.88525e-22)
(-0.159486 0.0229436 8.24106e-23)
(-0.162215 0.0198052 4.9316e-22)
(-0.16444 0.0167327 -1.02412e-22)
(-0.166175 0.0137465 -1.57754e-22)
(-0.16743 0.0108623 6.35987e-23)
(-0.168218 0.00809163 -2.12967e-22)
(-0.168552 0.00544326 -1.23455e-22)
(-0.168444 0.0029238 -2.70415e-22)
(-0.167903 0.000538728 1.2992e-22)
(-0.16694 -0.00170933 9.50574e-23)
(-0.165559 -0.00382515 -6.21084e-23)
(-0.163764 -0.00581616 6.99678e-23)
(-0.161564 -0.00768592 9.19367e-23)
(-0.158968 -0.00943789 2.19491e-23)
(-0.15599 -0.0110755 4.68942e-22)
(-0.152641 -0.0126023 -1.79363e-22)
(-0.148938 -0.0140213 5.40421e-22)
(-0.144896 -0.0153358 1.91228e-22)
(-0.14053 -0.0165482 -1.56741e-22)
(-0.135859 -0.0176612 1.76217e-22)
(-0.130897 -0.0186771 3.44614e-22)
(-0.125664 -0.0195981 -1.20672e-21)
(-0.120176 -0.0204267 -1.41313e-21)
(-0.114451 -0.0211653 1.00168e-21)
(-0.108506 -0.0218162 -5.23769e-22)
(-0.102359 -0.0223818 6.06259e-22)
(-0.0960278 -0.0228653 1.23387e-21)
(-0.0895301 -0.0232701 6.81526e-22)
(-0.0828832 -0.0235992 7.5352e-22)
(-0.0761037 -0.0238552 -1.42857e-21)
(-0.0692081 -0.0240403 -2.34437e-22)
(-0.0622127 -0.024158 -1.27852e-21)
(-0.055134 -0.0242121 -1.80685e-22)
(-0.0479876 -0.0242058 -2.64926e-22)
(-0.0407887 -0.0241428 -9.56212e-22)
(-0.0335523 -0.0240266 -1.52519e-21)
(-0.0262925 -0.023861 3.00741e-22)
(-0.0190229 -0.0236494 -5.42351e-21)
(-0.0117562 -0.0233962 -4.07804e-21)
(-0.00450444 -0.023105 -1.07505e-21)
(0.00272175 -0.02278 -2.46897e-21)
(0.00991125 -0.0224244 5.80329e-21)
(0.017053 -0.0220414 -7.8941e-22)
(0.0241378 -0.0216328 -3.69789e-21)
(0.0311581 -0.0212025 6.07044e-21)
(0.038106 -0.0207529 2.78095e-21)
(0.0449745 -0.020285 -1.95847e-21)
(0.0517588 -0.0198001 -1.62207e-21)
(0.0584544 -0.0193023 3.56341e-21)
(0.065056 -0.0187951 -6.4612e-21)
(0.0715584 -0.0182824 -7.38053e-22)
(0.0779569 -0.0177663 -2.48167e-21)
(0.0842476 -0.0172498 8.3717e-21)
(0.0904272 -0.0167342 -8.39927e-21)
(0.0964928 -0.0162217 -1.80272e-21)
(0.102442 -0.0157131 3.81014e-21)
(0.108273 -0.0152101 7.23326e-21)
(0.113985 -0.0147133 3.72036e-21)
(0.119576 -0.0142239 -6.04797e-22)
(0.125047 -0.0137424 -1.71387e-21)
(0.130397 -0.0132698 7.9739e-22)
(0.135627 -0.0128063 6.33892e-21)
(0.140736 -0.0123528 1.85982e-21)
(0.145726 -0.0119092 1.97598e-21)
(0.150597 -0.0114761 -1.19924e-21)
(0.15535 -0.0110531 4.40606e-21)
(0.159985 -0.0106403 6.56115e-21)
(0.164504 -0.0102381 8.29829e-21)
(0.168909 -0.00984682 -2.71143e-21)
(0.173203 -0.0094666 1.02662e-20)
(0.177387 -0.00909732 -1.02598e-20)
(0.181463 -0.00873875 -9.61898e-22)
(0.185432 -0.00839076 2.53816e-21)
(0.189295 -0.0080532 4.8739e-21)
(0.193055 -0.00772597 -1.72587e-21)
(0.196711 -0.00740891 -8.4888e-21)
(0.200268 -0.00710184 -7.20606e-21)
(0.203726 -0.00680459 -3.2261e-21)